ITEM: TIMESTEP
60000
ITEM: NUMBER OF ATOMS
33341
ITEM: BOX BOUNDS pp pp pp
-1.714321 101.065621
-1.969531 116.690531
0.000000 130.735200
ITEM: ATOMS id type x y z vx vy vz q
2 3 1.480 0.338 19.117 0.003 0.003 0.001 -1.061
4 3 1.355 0.205 29.131 0.007 0.000 -0.005 -1.174
6 3 0.833 0.635 37.376 -0.006 0.002 -0.007 -1.050
8 3 1.343 -0.003 47.447 0.005 0.006 -0.007 -1.099
9 3 -0.373 -0.168 21.838 -0.003 -0.003 -0.015 -1.108
11 3 -0.799 0.470 31.500 0.004 -0.006 0.003 -1.154
13 3 -1.189 -0.267 40.614 0.002 -0.001 0.002 -1.077
15 3 -0.501 0.104 49.804 -0.001 0.003 0.004 -1.206
18 3 3.795 -0.005 25.925 0.004 -0.002 0.006 -1.106
20 3 3.280 0.568 34.567 0.004 -0.001 0.003 -1.121
22 3 3.455 0.023 43.715 0.003 -0.000 0.001 -1.169
24 3 1.364 0.158 23.812 0.004 0.002 -0.001 -1.106
25 3 -1.126 0.203 27.043 -0.002 0.001 0.005 -1.080
28 3 2.713 -0.936 36.712 0.001 -0.004 -0.004 -1.083
30 3 0.929 -0.178 42.643 0.002 0.003 0.000 -1.096
31 3 -0.181 0.743 45.739 0.001 -0.001 -0.005 -1.090
34 3 1.219 0.086 51.498 0.004 -0.002 -0.002 -1.034
36 3 1.154 0.006 33.257 -0.000 0.005 0.002 -1.262
38 3 3.799 -0.151 19.848 0.001 -0.002 -0.001 -1.045
40 3 3.819 0.044 30.197 -0.006 0.004 0.001 -1.186
42 3 2.917 0.181 39.617 0.006 -0.002 -0.003 -1.066
44 3 3.687 -0.827 49.072 -0.007 -0.002 -0.004 -1.134
46 2 1.342 0.144 26.218 -0.000 -0.001 0.001 1.663
48 1 1.395 0.070 35.501 0.001 -0.001 -0.003 2.270
50 1 1.418 -0.086 44.720 0.000 -0.001 0.002 2.287
52 1 3.483 -0.046 22.861 -0.000 0.001 -0.004 2.236
54 1 3.480 0.044 32.517 -0.001 -0.000 0.001 2.184
56 1 3.671 -0.152 41.564 0.000 -0.001 0.001 2.232
57 1 0.226 -1.635 50.672 -0.001 0.001 0.000 2.212
58 1 3.340 -0.031 51.025 -0.002 0.003 -0.004 2.161
59 1 -0.606 0.245 19.775 0.001 0.002 0.004 2.211
61 1 -0.700 0.042 29.287 0.000 -0.000 -0.003 2.165
63 1 -0.988 -0.016 38.396 0.001 -0.005 -0.001 2.277
65 1 -0.777 0.075 47.660 -0.000 -0.001 0.001 2.287
68 3 1.707 3.699 19.058 0.001 0.000 0.004 -1.079
70 3 1.238 4.275 28.400 -0.005 -0.003 0.001 -1.178
72 3 1.331 4.185 37.455 0.005 0.003 0.004 -1.171
74 3 2.238 3.641 46.859 0.001 0.003 -0.002 -1.090
75 3 -0.848 3.462 22.632 0.003 0.007 -0.001 -1.070
76 3 2.484 1.558 21.841 0.005 0.004 -0.003 -1.189
77 3 -0.956 4.429 31.412 -0.004 -0.001 0.002 -1.115
78 3 2.508 1.902 31.936 -0.008 -0.002 0.002 -1.238
79 3 -1.189 3.324 40.281 -0.005 -0.001 0.005 -1.016
80 3 3.008 1.885 41.639 -0.004 0.002 0.000 -1.043
81 3 -0.975 3.766 49.907 0.001 0.001 -0.003 -1.183
82 3 2.502 1.586 49.858 -0.000 -0.001 0.001 -1.212
83 3 0.242 2.422 26.066 0.001 -0.005 0.001 -1.078
84 3 3.264 2.903 25.152 0.008 -0.001 0.003 -1.082
85 3 0.346 2.097 34.954 0.001 0.001 0.005 -1.203
86 3 3.439 4.285 34.624 0.005 -0.003 0.003 -1.098
87 3 0.112 2.725 43.854 0.003 0.001 -0.001 -1.064
88 3 3.501 3.902 44.124 0.001 0.001 -0.001 -1.115
90 3 1.642 3.636 23.509 0.003 0.003 -0.000 -1.194
92 3 2.720 2.388 27.562 0.002 0.002 -0.000 -1.097
94 3 2.975 2.292 36.339 0.002 0.004 -0.003 -1.136
96 3 2.158 4.771 41.573 0.002 0.010 0.006 -0.946
97 3 -0.193 4.528 46.043 0.006 0.008 0.001 -1.145
98 3 2.219 1.808 45.179 0.003 0.002 0.007 -1.088
100 3 1.541 3.691 51.347 0.003 -0.003 -0.001 -1.098
102 3 1.191 3.720 33.333 0.003 0.003 0.007 -1.181
103 3 0.246 2.044 20.727 -0.008 0.006 0.000 -1.076
104 3 3.344 3.793 20.991 -0.002 0.002 -0.002 -1.160
105 3 0.696 2.679 30.352 0.005 0.007 0.009 -1.012
106 3 3.625 3.603 30.325 -0.004 -0.001 -0.001 -1.258
107 3 0.890 2.479 39.148 -0.005 -0.010 0.000 -0.982
108 3 3.416 3.612 39.257 -0.006 0.003 0.000 -1.205
109 3 0.431 2.266 48.231 0.002 0.005 0.003 -1.146
110 3 4.298 3.182 48.769 -0.004 -0.000 -0.004 -1.074
112 1 1.706 3.803 26.296 0.001 -0.000 0.001 2.307
114 1 1.548 3.706 35.412 -0.000 0.002 0.001 2.275
116 1 1.389 3.917 44.879 0.000 0.000 -0.001 2.305
117 1 0.582 2.036 22.775 0.002 0.001 0.001 2.303
118 1 3.767 3.560 23.041 -0.003 0.003 -0.001 2.238
119 1 0.413 1.837 32.440 -0.002 -0.002 0.000 2.308
120 1 3.383 3.825 32.416 -0.002 -0.000 0.001 2.269
121 2 0.556 1.982 41.525 -0.001 -0.002 0.000 1.706
122 1 3.864 3.737 41.353 0.003 -0.003 0.002 2.291
123 1 0.222 1.981 50.573 0.002 -0.003 -0.003 2.082
124 1 3.635 3.491 50.775 0.003 -0.000 -0.001 2.165
125 1 -0.471 3.910 19.517 0.000 -0.000 0.000 2.120
126 1 2.749 1.971 19.823 0.002 -0.001 -0.000 2.174
127 1 -0.734 3.917 29.273 0.001 -0.001 0.001 2.185
128 1 2.581 1.874 29.583 0.001 0.003 0.000 2.169
129 1 -0.694 3.780 38.437 -0.001 -0.001 0.000 2.372
130 1 2.636 1.870 38.340 -0.001 -0.001 -0.001 2.278
131 1 -0.899 3.730 47.783 0.001 0.001 -0.002 2.259
132 1 2.496 1.859 47.897 0.000 -0.001 0.002 2.279
134 3 8.114 0.101 19.444 0.003 -0.001 -0.004 -1.063
136 3 7.821 -0.491 29.194 0.005 -0.001 -0.006 -1.005
138 3 7.600 -0.151 37.464 -0.004 0.002 -0.003 -0.925
140 3 7.572 0.052 47.080 -0.003 -0.005 0.001 -1.207
141 3 5.297 -0.710 22.054 -0.001 -0.000 -0.002 -1.149
143 3 5.439 0.195 32.692 0.008 -0.001 -0.001 -1.064
144 3 9.592 -1.466 31.109 -0.003 -0.004 -0.003 -1.087
145 3 5.587 0.380 40.833 -0.001 0.004 0.002 -1.122
147 3 5.984 -0.188 49.931 -0.004 0.004 -0.002 -1.031
150 3 10.131 0.077 25.374 0.002 0.001 0.004 -1.099
152 3 9.941 0.200 34.506 -0.002 -0.001 0.005 -1.184
154 3 9.802 -0.245 44.367 -0.003 0.004 0.001 -1.041
156 3 7.808 -0.031 23.797 -0.005 0.007 0.001 -1.220
157 3 6.191 0.047 27.114 0.007 -0.004 0.002 -1.110
159 3 5.353 0.102 36.339 -0.004 -0.003 0.004 -1.141
162 3 7.874 0.115 41.832 -0.002 -0.001 0.003 -1.007
163 3 5.701 0.134 44.988 0.001 0.004 0.001 -1.043
166 3 8.012 -0.565 51.545 0.002 0.003 0.006 -1.114
168 3 8.126 0.652 33.051 0.003 0.000 -0.004 -1.078
170 3 10.277 0.097 20.912 -0.001 0.004 0.005 -1.068
173 3 9.016 0.064 38.578 0.006 0.005 0.005 -0.890
175 3 9.395 0.332 48.970 -0.004 0.002 0.003 -1.200
177 1 7.889 -0.005 25.878 -0.000 0.002 0.002 2.338
179 1 8.076 -0.066 35.352 0.001 -0.002 -0.001 2.180
181 1 7.785 0.026 44.983 0.004 -0.001 -0.001 2.290
183 1 9.855 -0.060 23.047 -0.001 -0.001 -0.002 2.179
185 1 10.126 0.080 32.455 0.000 -0.001 0.001 2.323
187 2 10.316 0.163 41.956 0.002 0.001 0.001 1.681
189 1 9.923 0.001 50.998 0.001 0.001 -0.000 2.193
190 1 5.904 0.038 20.016 -0.001 -0.001 -0.000 2.159
192 1 5.650 -0.112 29.081 -0.003 0.002 0.002 2.319
194 1 5.959 0.104 38.614 0.002 -0.000 0.001 2.326
196 1 5.589 -0.077 47.919 -0.000 -0.001 -0.000 2.203
197 1 8.913 -1.624 48.020 -0.002 -0.004 0.002 2.245
198 3 4.894 2.066 19.356 -0.010 -0.012 -0.007 -1.076
199 3 7.953 3.622 19.337 0.004 -0.000 -0.006 -1.146
200 3 5.013 1.843 28.450 -0.007 -0.002 0.003 -1.223
201 3 7.342 3.373 28.135 -0.000 0.001 0.004 -1.114
202 3 4.769 1.831 38.430 0.002 -0.002 0.005 -1.084
203 3 7.691 3.556 37.572 0.001 0.001 0.002 -1.194
204 3 4.215 1.114 46.866 -0.004 0.002 -0.000 -1.122
205 3 7.901 3.777 47.115 0.002 -0.002 0.004 -1.187
206 3 5.787 3.923 22.220 -0.003 -0.008 -0.005 -1.271
207 3 8.786 1.914 22.179 -0.005 0.004 -0.001 -1.207
208 3 6.678 3.459 31.077 0.005 0.003 -0.001 -1.088
209 3 9.594 1.898 31.563 -0.005 0.005 0.004 -1.034
210 3 5.829 3.907 40.739 0.003 0.004 -0.002 -1.279
211 3 8.847 2.614 40.580 0.007 0.002 0.002 -1.048
212 3 5.868 3.599 51.080 -0.008 -0.001 0.011 -0.936
213 3 9.146 1.870 51.560 0.002 0.001 -0.003 -1.072
214 3 6.543 1.621 25.190 0.002 0.004 -0.004 -1.138
215 3 9.935 3.760 25.381 -0.003 0.001 0.002 -1.132
216 3 6.922 1.671 35.339 0.003 -0.004 0.001 -1.095
217 3 11.500 1.980 33.080 0.006 0.001 0.002 -1.200
218 3 7.617 1.844 43.606 -0.003 0.000 -0.005 -1.049
219 3 10.285 3.355 43.718 -0.002 -0.006 0.004 -1.169
220 3 4.769 1.496 23.171 0.000 -0.006 -0.003 -1.178
221 3 7.755 3.640 23.850 0.000 0.004 0.002 -1.187
222 3 5.587 3.791 25.905 -0.004 0.000 -0.001 -1.125
223 3 8.831 1.785 26.508 -0.002 0.008 0.001 -1.203
224 3 5.175 3.546 36.279 -0.005 -0.005 -0.008 -1.115
225 3 9.446 2.150 36.348 0.001 -0.002 0.002 -1.081
226 3 5.178 2.495 42.774 0.001 0.001 -0.003 -1.049
227 3 8.062 4.183 42.600 -0.003 0.001 0.004 -1.169
228 3 5.958 2.988 45.506 0.001 -0.003 0.001 -1.115
229 3 8.968 1.816 45.722 -0.001 -0.004 -0.002 -1.263
230 3 4.316 1.609 51.655 0.000 0.002 -0.000 -1.086
231 3 4.843 2.524 33.207 0.001 -0.001 0.005 -1.159
232 3 7.033 3.621 33.580 -0.007 -0.002 -0.000 -1.033
233 3 6.713 1.677 20.952 0.007 0.000 -0.003 -1.232
234 3 10.048 4.008 20.872 0.004 -0.003 0.005 -1.087
235 3 6.644 1.065 30.618 0.007 0.009 -0.005 -0.997
236 3 10.529 4.002 30.194 -0.003 0.004 -0.002 -1.043
237 3 7.050 1.888 39.282 0.004 -0.001 -0.005 -1.057
238 3 10.305 4.235 38.515 -0.001 0.001 0.012 -1.161
239 3 6.617 1.931 48.305 -0.000 -0.002 0.004 -1.026
240 3 9.073 3.501 49.073 -0.005 -0.004 -0.003 -0.999
241 1 4.666 1.823 26.334 0.001 -0.000 0.001 2.237
242 1 7.799 3.550 26.028 -0.000 0.001 0.001 2.238
243 1 4.818 1.862 35.300 -0.002 -0.001 0.000 2.338
244 1 8.008 3.765 35.514 0.003 0.002 -0.004 2.300
245 1 4.332 1.884 44.656 0.000 0.000 0.002 2.258
246 1 7.868 3.672 44.676 0.002 0.001 -0.001 2.297
247 1 6.796 1.858 23.096 0.001 -0.003 -0.001 2.271
248 1 9.924 3.592 22.992 0.001 0.001 -0.000 2.194
249 1 6.641 1.902 32.463 -0.000 -0.002 -0.001 2.360
250 1 10.341 3.725 32.194 -0.000 0.003 -0.000 2.313
251 1 6.904 1.888 41.622 -0.001 -0.003 0.000 2.272
252 1 10.063 3.922 41.810 0.001 0.001 0.002 2.303
253 2 6.724 1.523 51.608 0.002 0.001 -0.002 1.668
254 1 10.008 3.747 51.110 -0.001 -0.001 0.001 2.183
255 1 5.963 3.663 20.123 0.001 -0.003 0.003 2.155
256 1 8.891 1.848 20.133 -0.002 -0.000 -0.002 2.229
257 1 5.686 3.677 29.328 -0.000 -0.001 -0.002 2.217
258 2 8.666 1.721 29.299 0.002 0.001 0.001 1.676
259 1 5.767 3.753 38.504 -0.003 -0.003 0.001 2.272
260 1 8.986 2.170 38.451 0.000 -0.000 -0.001 2.308
261 1 5.834 3.706 47.511 -0.001 0.001 0.002 2.328
262 1 8.685 1.883 47.775 0.002 -0.000 0.002 2.303
265 3 10.771 -1.037 28.009 -0.004 0.003 0.009 -1.120
266 3 14.490 -0.016 28.536 0.004 -0.005 -0.003 -1.362
268 3 10.931 -1.050 47.174 -0.001 -0.005 -0.001 -1.144
269 3 13.786 0.582 47.029 -0.001 0.001 -0.004 -1.120
270 3 12.784 -0.276 21.909 -0.001 0.002 0.000 -1.137
272 3 12.048 0.416 31.000 -0.001 -0.000 0.003 -1.086
274 3 12.760 0.130 41.314 0.005 -0.003 0.005 -1.049
276 3 11.765 1.004 50.418 0.002 -0.007 -0.002 -1.194
285 3 14.919 0.254 24.082 0.003 0.000 -0.011 -1.112
286 3 12.547 0.413 26.611 -0.001 0.001 -0.002 -1.123
288 3 12.024 0.107 35.830 -0.003 0.000 -0.001 -1.136
291 3 14.789 -0.611 42.725 -0.003 0.000 0.001 -1.162
292 3 11.974 0.253 44.798 0.007 0.001 0.001 -1.134
295 3 13.671 0.197 52.117 0.004 0.004 -0.005 -0.887
297 3 14.234 -0.225 32.958 0.001 0.011 0.004 -1.141
304 3 12.573 -1.363 49.276 -0.003 0.004 -0.001 -1.149
306 1 11.254 -1.744 25.998 0.001 0.001 0.000 2.235
307 1 14.522 -0.130 26.146 0.001 -0.000 -0.000 2.237
309 1 14.396 0.087 35.071 0.001 -0.000 0.000 2.252
311 1 14.149 0.119 44.709 0.001 -0.003 0.000 2.290
318 1 13.104 -1.567 51.236 -0.001 -0.002 0.001 2.302
320 1 12.038 0.018 19.922 0.003 -0.000 0.002 2.164
322 1 12.481 0.185 28.994 -0.000 -0.002 0.002 2.217
324 2 12.186 0.034 38.374 -0.000 0.001 0.002 1.662
326 1 12.162 0.374 48.339 0.000 0.003 0.001 2.128
328 3 10.835 1.966 19.387 0.000 0.004 -0.003 -1.079
329 3 14.207 4.234 19.412 0.002 0.007 -0.002 -1.079
330 3 11.454 1.952 28.384 0.002 -0.001 -0.001 -1.171
331 3 14.284 4.254 28.200 -0.005 -0.004 0.003 -1.195
332 3 11.089 1.987 38.858 -0.002 -0.002 0.001 -1.012
333 3 14.584 4.041 37.666 -0.005 0.010 -0.005 -1.187
334 3 11.025 2.034 47.227 -0.004 -0.001 0.004 -1.204
335 3 14.276 3.861 46.758 0.002 -0.003 0.001 -1.322
336 3 12.631 3.663 21.661 0.006 -0.002 -0.000 -1.011
338 3 12.413 5.636 30.061 -0.002 -0.000 0.002 -1.086
340 3 12.562 4.099 40.695 -0.002 0.000 -0.000 -1.161
342 3 11.333 4.065 49.410 0.003 0.008 0.006 -1.042
345 3 13.406 2.022 34.530 -0.001 -0.003 0.006 -1.077
347 3 13.983 1.969 43.732 0.002 -0.002 -0.001 -1.126
349 3 10.813 1.759 23.457 -0.006 -0.002 0.003 -1.095
350 3 14.614 3.896 23.793 -0.002 -0.001 -0.001 -1.098
351 3 12.567 3.339 25.861 -0.004 -0.001 -0.001 -1.096
353 3 12.391 3.237 36.529 -0.002 -0.002 0.006 -1.112
355 3 11.441 2.357 41.892 0.002 -0.002 -0.001 -1.014
356 3 14.675 3.846 42.354 0.002 0.001 0.001 -1.140
357 3 12.280 3.392 45.425 0.001 0.001 -0.001 -1.213
359 3 12.024 3.385 51.728 -0.002 0.005 0.000 -1.093
360 3 14.415 4.105 50.963 0.002 0.001 -0.004 -1.034
361 3 12.689 3.668 31.632 0.004 -0.002 -0.005 -1.090
362 3 14.598 4.040 33.392 -0.002 -0.007 -0.004 -1.123
363 3 13.323 1.752 19.639 0.001 0.000 0.001 -1.149
365 3 13.576 2.125 29.788 0.001 0.002 -0.003 -1.172
367 3 13.747 2.164 39.412 0.001 -0.000 -0.000 -1.136
369 3 13.587 2.224 48.927 -0.003 0.000 0.000 -1.145
371 1 11.018 1.991 26.266 -0.000 -0.001 0.002 2.158
372 1 14.561 3.907 26.102 0.001 0.001 0.002 2.154
373 1 11.235 1.897 35.123 0.001 0.001 0.000 2.253
374 1 14.281 3.746 35.492 -0.001 0.000 0.001 2.263
375 1 10.876 1.974 45.069 -0.000 0.001 0.000 2.268
376 1 14.315 3.772 44.662 0.001 0.001 0.002 2.278
377 2 13.250 1.801 23.125 -0.002 0.002 -0.004 1.631
379 1 13.256 1.716 32.115 -0.000 0.000 -0.001 2.324
381 1 13.490 2.141 41.502 0.001 0.000 0.001 2.252
383 1 13.396 2.023 51.145 -0.004 -0.002 -0.002 2.238
385 1 12.083 3.732 19.676 0.003 0.001 -0.000 2.163
387 1 12.386 3.726 29.234 0.002 0.000 0.002 2.351
389 1 12.270 3.766 38.641 0.000 -0.001 -0.001 2.263
391 1 12.430 3.677 47.677 -0.001 -0.000 0.002 2.253
2081 3 0.950 6.255 19.641 0.002 0.004 0.006 -0.964
2083 3 2.116 8.155 27.752 -0.002 -0.003 -0.005 -1.007
2085 3 1.525 7.315 37.924 0.007 0.001 0.005 -1.173
2087 3 1.581 7.274 47.555 -0.001 0.007 0.002 -1.165
2088 3 -0.593 7.930 21.836 0.000 -0.002 0.002 -1.139
2089 3 2.481 5.885 22.132 0.004 0.003 -0.007 -1.150
2090 3 -0.178 7.657 31.931 0.008 -0.001 0.000 -1.106
2091 3 2.020 5.323 31.162 0.000 0.001 -0.001 -1.097
2092 3 -0.586 7.688 40.762 0.001 0.001 -0.002 -1.182
2093 3 3.123 5.881 40.426 0.006 -0.007 -0.002 -0.940
2094 3 -0.966 7.757 49.682 -0.001 0.003 -0.005 -1.195
2095 3 2.200 4.844 49.345 -0.007 0.006 0.004 -1.079
2096 3 0.384 5.275 25.718 0.003 0.001 0.002 -1.174
2097 3 3.264 7.778 25.175 -0.004 -0.003 0.003 -1.094
2098 3 0.331 5.412 35.509 -0.001 0.006 -0.000 -1.122
2099 3 4.667 7.502 34.853 -0.003 -0.000 -0.005 -1.010
2100 3 0.329 5.450 43.692 0.004 -0.002 0.002 -1.256
2101 3 3.653 7.634 43.844 0.007 -0.001 0.003 -1.272
2103 3 1.188 7.168 23.973 0.004 -0.005 -0.001 -1.205
2104 3 -0.670 7.483 26.762 -0.000 0.004 -0.001 -1.308
2105 3 2.878 5.556 26.362 -0.003 0.000 -0.000 -1.171
2106 3 -0.954 7.352 36.287 -0.007 0.003 0.001 -1.192
2107 3 2.988 6.359 36.420 0.003 0.000 -0.001 -1.078
2109 3 1.600 7.517 42.181 -0.001 -0.002 -0.003 -1.316
2110 3 -0.412 7.696 45.453 0.002 -0.001 0.003 -1.192
2111 3 2.338 5.857 45.459 0.002 0.006 -0.006 -1.173
2113 3 1.287 7.210 51.161 -0.008 0.001 0.004 -1.122
2115 3 1.709 6.689 33.682 0.002 -0.005 0.006 -1.080
2116 3 0.169 5.139 20.988 0.000 -0.007 0.001 -1.010
2117 3 3.618 7.441 19.736 0.006 0.001 0.004 -1.096
2118 3 1.265 6.939 29.038 0.002 -0.004 -0.004 -0.986
2119 3 3.688 7.296 29.603 -0.001 -0.000 0.004 -1.107
2120 3 0.326 5.551 39.431 -0.001 0.004 0.000 -1.150
2121 3 3.984 8.021 39.497 -0.002 -0.000 0.004 -1.070
2122 3 -0.079 5.620 48.460 0.003 0.001 -0.002 -1.064
2123 3 3.932 7.300 48.146 -0.000 0.001 -0.002 -1.103
2125 1 1.387 7.225 26.051 0.001 -0.000 -0.002 2.245
2127 1 1.310 7.296 35.636 -0.002 0.001 -0.002 2.260
2129 1 1.421 7.455 44.287 0.001 0.002 0.002 2.197
2130 1 0.583 5.431 22.960 -0.002 -0.000 -0.002 2.251
2131 1 3.652 7.388 23.124 0.000 -0.003 -0.001 2.251
2132 1 0.373 5.662 32.449 -0.003 0.000 -0.001 2.216
2133 2 3.751 7.525 32.576 0.000 0.000 -0.002 1.675
2134 1 0.358 5.878 41.586 -0.000 -0.002 0.001 2.192
2135 1 3.658 7.415 41.762 0.002 0.001 0.000 2.301
2136 1 0.542 5.469 50.478 -0.002 0.002 -0.000 2.216
2137 2 3.590 7.633 51.765 -0.002 -0.001 0.001 1.641
2138 1 -0.737 7.526 19.852 0.001 -0.002 -0.002 2.202
2139 1 2.652 5.462 20.081 0.001 0.002 -0.000 2.304
2140 1 -0.546 7.800 28.832 0.000 -0.002 0.002 2.208
2141 1 2.719 5.398 29.159 -0.004 0.002 0.003 2.255
2142 1 -0.568 7.313 38.488 -0.002 -0.002 -0.001 2.206
2143 1 2.532 5.422 38.498 0.004 0.000 -0.000 2.259
2144 1 -0.541 7.536 47.575 0.000 0.000 -0.003 2.318
2145 1 2.745 5.592 47.524 -0.001 0.000 0.003 2.341
2147 3 1.456 11.266 19.491 -0.002 -0.000 0.001 -1.044
2149 3 2.543 11.078 28.421 0.009 0.001 0.001 -1.128
2151 3 2.208 11.169 37.741 -0.000 0.003 0.002 -1.117
2153 3 1.627 11.300 46.846 0.003 0.000 -0.001 -1.189
2154 3 -0.756 11.167 22.053 -0.001 0.001 -0.005 -1.098
2155 3 2.450 8.975 22.091 0.004 -0.003 0.002 -1.054
2156 3 -0.651 11.341 31.489 0.003 0.000 -0.009 -1.238
2157 3 2.473 9.537 31.588 -0.002 -0.010 0.001 -1.122
2158 3 -0.148 11.255 40.670 -0.003 0.005 0.008 -1.080
2159 3 2.320 9.817 40.704 0.002 -0.007 0.001 -1.110
2160 3 -0.385 11.037 50.466 0.004 -0.009 -0.008 -1.101
2161 3 2.312 9.622 51.159 0.003 -0.002 -0.003 -1.028
2162 3 0.565 9.384 25.277 -0.002 0.004 -0.005 -1.086
2163 3 4.076 11.456 25.356 -0.006 0.001 -0.001 -1.183
2164 3 0.353 9.076 34.664 0.002 -0.002 0.004 -1.218
2165 3 3.516 10.183 34.358 0.007 -0.000 -0.002 -1.049
2166 3 0.653 9.401 43.560 0.005 -0.003 0.003 -1.217
2167 3 3.726 10.809 43.894 -0.003 0.001 0.007 -1.239
2169 3 1.537 11.061 23.587 -0.005 -0.009 -0.006 -1.152
2171 3 -0.313 11.004 36.409 0.002 0.000 -0.002 -1.149
2172 3 2.434 9.009 36.315 0.005 0.003 0.004 -1.225
2174 3 1.724 11.516 42.620 -0.005 0.000 0.003 -1.087
2175 3 -0.549 10.963 45.290 -0.000 0.009 0.002 -1.237
2176 3 2.086 9.167 45.567 0.002 -0.001 0.004 -1.096
2178 3 2.162 12.514 51.289 0.003 -0.000 -0.002 -1.076
2180 3 1.485 11.129 33.308 -0.004 0.002 -0.000 -1.208
2181 3 0.674 8.979 19.611 0.002 0.005 -0.005 -1.077
2182 3 3.867 10.902 19.891 -0.009 -0.003 -0.005 -1.131
2183 3 0.545 9.526 30.033 -0.004 0.004 -0.001 -1.157
2184 3 3.829 11.784 30.504 -0.009 -0.002 -0.005 -1.118
2185 3 0.341 9.246 39.030 0.003 0.004 0.004 -1.232
2186 3 4.259 11.787 39.816 0.001 0.008 -0.003 -1.087
2187 3 0.737 9.443 48.441 0.007 0.001 -0.004 -1.193
2188 3 3.638 10.069 49.023 0.002 -0.003 0.000 -1.036
2190 2 1.378 11.360 26.412 0.002 0.001 -0.001 1.603
2192 1 1.602 10.828 35.556 0.001 -0.001 0.001 2.160
2194 1 1.580 10.932 44.657 0.001 0.002 -0.000 2.350
2195 1 0.589 9.179 23.262 -0.001 0.002 0.002 2.198
2196 1 3.602 11.446 23.361 -0.003 -0.003 0.000 2.125
2197 1 0.381 9.574 32.329 0.000 -0.001 0.000 2.215
2198 1 3.470 11.322 32.521 -0.002 0.001 0.002 2.286
2199 1 0.351 9.348 41.437 0.002 0.002 -0.003 2.312
2200 1 3.718 11.150 41.752 0.001 0.002 -0.001 2.204
2201 1 0.421 9.081 50.493 0.001 0.001 -0.003 2.236
2202 1 3.666 11.193 50.862 0.001 0.003 -0.000 2.272
2203 1 -0.669 10.991 19.923 0.000 -0.002 -0.002 2.105
2204 1 2.682 9.359 20.041 0.001 0.001 -0.002 2.130
2205 1 -0.812 11.203 29.410 -0.001 0.003 0.003 2.198
2206 1 2.636 9.166 29.438 -0.000 -0.001 -0.000 2.231
2207 1 -0.650 11.032 38.498 0.001 -0.000 -0.001 2.237
2208 1 2.468 9.211 38.642 -0.000 0.003 -0.001 2.253
2209 1 -0.392 11.154 47.470 0.001 -0.002 -0.002 2.231
2210 1 2.669 9.038 47.608 0.002 -0.001 -0.001 2.342
2211 3 4.804 5.339 19.536 0.000 -0.004 0.001 -1.085
2212 3 7.858 7.366 18.992 -0.006 -0.000 -0.003 -1.109
2213 3 4.539 4.941 28.140 0.004 -0.001 -0.001 -1.159
2214 3 8.490 7.685 28.000 -0.001 0.001 0.004 -1.103
2215 3 4.817 5.586 37.908 0.004 -0.004 -0.001 -1.203
2216 3 8.280 7.448 37.693 -0.001 -0.000 0.004 -1.203
2217 3 4.559 5.019 46.662 0.003 0.007 0.009 -1.246
2218 3 8.020 6.879 46.842 0.002 -0.002 -0.001 -1.223
2219 3 5.451 7.056 22.123 0.005 -0.005 0.001 -1.174
2220 3 8.908 5.735 22.892 0.010 -0.005 0.000 -1.101
2221 3 6.160 7.604 32.121 -0.005 -0.001 -0.005 -1.030
2222 3 8.939 5.281 31.924 0.002 0.005 -0.002 -1.036
2223 3 6.240 7.436 40.901 -0.006 -0.002 -0.001 -1.160
2224 3 9.199 5.489 40.660 -0.001 0.000 0.003 -1.174
2225 3 5.919 7.554 51.171 -0.001 -0.005 -0.000 -1.103
2226 3 8.259 4.714 51.625 -0.002 -0.001 -0.000 -0.840
2227 3 6.449 6.362 24.814 -0.010 -0.003 0.007 -1.137
2228 3 10.361 7.281 25.585 0.000 0.002 0.008 -1.216
2229 3 6.848 5.635 35.531 0.001 0.000 -0.007 -1.109
2230 3 9.881 7.747 35.209 0.007 0.004 -0.006 -1.107
2231 3 6.742 5.473 44.784 -0.007 0.004 0.003 -1.146
2232 3 10.111 7.388 44.630 0.002 -0.001 0.002 -1.133
2233 3 4.291 5.444 23.872 -0.004 -0.001 -0.004 -1.088
2234 3 8.299 7.897 23.957 0.004 0.000 0.003 -1.011
2235 3 5.722 7.227 27.218 -0.002 0.002 -0.001 -1.152
2236 3 8.253 5.470 26.497 0.002 -0.004 -0.003 -1.081
2237 3 6.104 8.167 36.687 0.003 -0.004 -0.001 -1.188
2238 3 9.059 5.256 36.462 -0.011 -0.003 -0.002 -1.037
2239 3 4.771 5.777 42.310 -0.001 0.001 0.003 -1.213
2240 3 8.355 6.836 42.549 0.005 -0.006 -0.006 -1.051
2241 3 5.439 7.440 45.702 -0.003 -0.005 0.002 -1.144
2242 3 9.360 4.867 45.493 -0.001 -0.003 0.001 -1.084
2243 3 4.408 5.404 51.234 -0.003 0.004 0.004 -1.054
2244 3 8.335 6.487 51.198 0.001 0.004 -0.002 -0.812
2245 3 4.826 5.256 32.653 -0.004 0.000 0.000 -1.085
2246 3 7.904 6.591 33.629 0.004 -0.002 0.002 -1.004
2247 3 7.235 5.640 20.784 -0.004 -0.008 -0.001 -1.238
2248 3 10.356 6.867 20.735 0.001 -0.001 0.001 -1.026
2249 3 6.341 5.635 30.198 0.003 0.003 -0.002 -1.122
2250 3 6.892 5.634 39.202 0.000 0.004 -0.002 -1.174
2251 3 10.233 7.305 39.112 0.001 0.002 -0.001 -1.188
2252 3 6.354 5.429 48.683 0.005 -0.000 0.002 -1.292
2253 3 9.470 7.022 48.883 0.002 0.002 -0.002 -1.168
2254 1 4.898 5.699 26.047 -0.001 0.000 -0.001 2.278
2255 1 8.038 7.541 25.920 -0.002 0.001 -0.000 2.285
2256 1 4.771 5.554 35.706 -0.001 -0.000 0.002 2.253
2257 1 7.829 7.544 35.564 -0.000 -0.001 0.002 2.347
2258 1 4.599 5.644 44.601 0.001 -0.001 0.001 2.184
2259 1 7.991 7.301 44.709 -0.002 -0.003 -0.001 2.224
2260 1 6.829 5.521 22.887 0.001 0.001 0.002 2.284
2261 1 10.101 7.443 22.739 0.003 0.001 0.002 2.301
2262 1 6.799 5.589 32.281 -0.002 -0.000 -0.001 2.318
2263 2 9.840 7.384 32.381 -0.000 -0.005 0.000 1.649
2264 1 6.823 5.512 41.538 -0.001 -0.001 -0.000 2.241
2265 1 10.127 7.319 41.381 0.004 0.000 0.002 2.255
2266 1 6.484 5.582 50.771 -0.002 0.002 -0.003 2.216
2267 1 10.100 7.563 50.865 -0.001 -0.002 0.001 2.265
2268 1 5.871 7.237 19.958 -0.000 0.002 0.004 2.116
2269 1 9.003 5.564 19.765 0.001 -0.001 0.004 2.138
2270 1 5.852 7.501 29.266 0.003 -0.000 0.003 2.078
2271 2 9.424 5.562 28.582 0.001 0.001 0.003 1.657
2272 1 5.816 7.436 38.692 -0.000 -0.002 -0.002 2.220
2273 1 8.941 5.659 38.558 -0.000 -0.001 0.002 2.316
2274 1 6.025 7.108 47.615 0.003 0.000 -0.002 2.192
2275 1 9.225 5.307 47.646 -0.000 -0.000 0.001 2.222
2276 3 5.929 9.279 20.014 0.003 -0.002 0.004 -0.922
2277 3 9.634 11.143 19.059 -0.009 -0.000 -0.002 -1.014
2278 3 4.815 9.479 29.155 -0.004 0.005 0.001 -1.186
2279 3 8.900 11.331 28.138 0.000 -0.002 0.005 -1.157
2280 3 4.505 9.838 37.975 -0.001 0.000 0.001 -1.117
2281 3 7.403 11.854 37.254 0.006 -0.006 0.003 -1.087
2282 3 4.292 9.610 46.507 -0.001 0.002 -0.006 -1.045
2283 3 9.519 10.202 49.087 -0.002 -0.001 0.002 -1.114
2284 3 6.307 11.684 21.876 -0.001 -0.000 -0.004 -1.151
2285 3 8.972 8.533 21.366 -0.001 0.001 0.003 -1.044
2286 3 5.268 10.286 31.723 0.003 -0.010 -0.003 -1.106
2287 3 7.536 8.257 30.385 -0.005 0.000 0.006 -1.041
2288 3 6.470 11.176 41.105 -0.003 -0.001 -0.001 -1.149
2289 3 8.926 8.897 40.772 -0.004 -0.004 -0.005 -1.106
2290 3 5.914 11.145 50.615 0.004 0.008 -0.002 -1.033
2291 3 8.628 9.038 51.428 -0.004 0.001 -0.002 -1.117
2292 3 7.111 9.386 26.003 0.002 0.003 0.003 -1.053
2293 3 11.633 10.928 26.102 -0.001 -0.000 -0.001 -0.934
2294 3 7.316 9.183 34.485 -0.002 -0.001 -0.007 -1.100
2295 3 9.581 11.946 34.361 0.004 0.001 -0.006 -1.108
2296 3 6.754 8.651 43.797 -0.003 -0.006 -0.001 -1.152
2297 3 10.296 10.886 44.577 -0.004 0.003 -0.001 -1.106
2298 3 4.024 9.391 22.985 -0.000 0.000 -0.002 -0.994
2299 3 8.331 11.267 24.205 0.002 -0.010 -0.003 -1.178
2300 3 6.164 11.534 27.492 -0.002 -0.002 -0.004 -1.110
2301 3 9.353 9.657 26.551 0.001 -0.004 0.006 -1.073
2302 3 5.455 11.093 35.594 0.004 0.004 0.000 -1.077
2303 3 8.996 9.858 36.339 0.002 -0.006 -0.000 -1.240
2304 3 4.816 9.255 41.984 -0.006 0.003 -0.003 -1.163
2305 3 8.326 10.294 42.838 0.003 0.002 -0.002 -0.997
2306 3 6.060 11.134 45.064 -0.001 -0.001 -0.000 -1.121
2307 3 8.367 9.379 45.764 0.001 0.005 -0.003 -1.126
2308 3 4.723 9.753 52.059 0.001 -0.003 0.009 -1.031
2309 3 7.906 11.541 51.611 0.002 0.002 0.003 -1.073
2310 3 9.026 9.654 32.019 -0.004 0.002 -0.000 -1.147
2311 3 7.173 9.963 18.888 0.002 0.004 -0.003 -0.847
2312 3 9.690 11.398 21.411 0.002 -0.001 -0.002 -1.119
2313 3 7.455 10.519 29.908 -0.007 -0.008 0.000 -1.119
2314 3 10.347 11.594 30.053 -0.003 -0.000 -0.004 -1.072
2315 3 6.994 9.388 39.028 -0.002 0.002 -0.002 -1.149
2316 3 9.180 11.208 39.083 -0.002 0.001 0.003 -1.049
2317 3 6.970 8.831 48.195 -0.006 0.008 0.003 -1.078
2318 2 4.675 9.332 26.285 -0.000 -0.001 0.001 1.638
2319 1 8.015 11.279 26.299 0.001 -0.001 -0.001 2.328
2320 1 4.582 9.252 35.979 -0.001 -0.000 -0.002 2.289
2321 1 7.876 11.147 35.301 0.003 -0.000 0.002 2.318
2322 1 4.811 9.172 44.643 -0.001 -0.001 -0.001 2.311
2323 1 8.107 11.098 44.722 -0.002 0.001 -0.001 2.311
2324 2 7.158 9.562 22.672 -0.003 -0.001 -0.000 1.601
2325 1 10.188 11.255 23.267 0.001 0.002 -0.001 2.277
2326 1 7.043 9.508 32.180 0.001 0.000 0.002 2.275
2327 1 10.284 11.233 32.256 -0.001 0.002 0.002 2.213
2328 1 6.916 9.221 41.675 0.001 -0.000 0.001 2.308
2329 2 10.028 11.154 41.341 -0.000 -0.001 0.001 1.660
2330 1 6.711 9.403 51.634 0.002 0.000 0.001 2.055
2331 1 9.791 11.069 50.912 -0.002 0.000 -0.001 2.203
2332 1 5.954 11.435 19.823 0.001 -0.001 -0.000 2.160
2333 1 9.036 9.093 19.356 -0.001 -0.002 -0.003 2.095
2334 1 5.592 11.299 29.599 0.001 -0.001 -0.001 2.333
2335 1 8.972 9.447 29.049 -0.001 -0.000 -0.000 2.189
2336 1 5.960 11.196 38.761 0.002 0.002 -0.001 2.209
2337 1 9.002 9.238 38.378 0.002 0.002 0.001 2.280
2338 2 5.729 10.978 48.116 -0.004 -0.002 -0.001 1.693
2339 1 9.051 8.830 47.738 -0.001 -0.003 -0.001 2.143
2340 3 11.109 5.417 18.914 0.001 0.001 0.001 -1.118
2341 3 14.590 7.486 19.283 -0.001 0.006 0.002 -1.098
2342 3 11.360 4.557 27.667 -0.001 -0.003 0.002 -1.062
2343 3 14.553 7.499 28.440 -0.003 0.002 -0.000 -1.227
2344 3 9.760 3.344 34.198 -0.002 -0.002 -0.001 -1.093
2345 3 14.353 7.800 38.273 0.001 0.004 0.005 -1.217
2346 3 11.226 5.356 46.976 -0.003 -0.008 0.004 -1.304
2347 3 14.302 7.491 47.516 0.001 0.003 0.003 -1.078
2348 3 12.139 7.147 22.788 0.000 -0.002 -0.007 -1.049
2350 3 12.696 7.664 31.901 -0.003 -0.003 -0.003 -1.144
2352 3 12.407 7.067 40.685 0.005 -0.001 0.000 -1.085
2354 3 11.682 7.732 49.477 0.003 0.006 -0.002 -0.955
2356 3 13.368 5.975 25.862 -0.003 0.001 -0.008 -1.158
2358 3 13.667 5.747 35.468 0.003 0.010 0.001 -1.086
2360 3 13.373 5.427 43.852 0.003 -0.002 -0.006 -1.325
2362 3 11.594 4.894 23.641 0.000 0.002 0.002 -1.165
2364 3 11.395 8.009 28.366 -0.003 -0.003 0.002 -1.049
2366 3 12.643 8.213 36.408 0.003 0.000 -0.006 -1.121
2368 3 11.141 5.704 42.414 0.003 -0.005 -0.006 -1.188
2369 3 14.374 7.563 42.484 -0.001 0.000 0.000 -1.273
2370 3 12.611 7.152 45.491 0.003 -0.004 -0.007 -1.226
2372 3 11.016 5.766 51.479 0.013 0.000 -0.005 -1.098
2373 3 12.944 7.397 50.846 -0.003 0.003 -0.006 -0.941
2374 3 11.626 5.241 32.974 -0.008 0.002 -0.008 -1.138
2375 3 14.686 6.861 33.485 0.001 0.011 -0.008 -1.055
2376 3 13.138 5.924 20.624 -0.003 -0.007 -0.001 -1.075
2378 3 14.788 6.010 30.749 0.006 0.001 -0.007 -0.989
2380 3 12.843 5.860 38.350 -0.006 -0.005 0.000 -1.090
2382 3 13.331 5.397 48.649 -0.006 -0.001 0.006 -1.162
2384 1 11.385 5.440 25.660 0.001 -0.000 0.000 2.126
2385 1 14.687 7.557 26.439 0.000 -0.000 0.000 2.250
2386 2 11.215 5.758 35.429 -0.003 0.001 0.002 1.622
2387 1 14.480 7.652 35.544 0.001 0.002 0.001 2.324
2388 1 11.301 5.486 44.685 0.002 0.001 -0.002 2.182
2389 1 14.442 7.465 44.557 0.001 -0.000 0.001 2.250
2390 1 13.351 5.401 22.652 -0.002 0.002 -0.002 2.278
2392 1 13.450 5.542 32.297 0.000 -0.002 -0.000 2.286
2394 1 13.369 5.652 41.849 -0.001 0.001 0.002 2.308
2396 1 12.859 5.345 50.700 -0.002 0.001 -0.001 2.224
2398 1 12.342 7.260 19.403 -0.000 0.000 0.001 2.068
2400 1 12.864 7.600 29.752 0.000 -0.001 -0.001 2.180
2402 1 12.342 7.824 38.675 -0.001 -0.001 0.001 2.318
2404 1 12.260 7.119 47.564 0.001 -0.002 -0.001 2.194
2406 3 11.038 8.861 18.766 -0.001 -0.002 0.003 -1.090
2408 3 10.996 9.391 29.556 0.001 -0.002 -0.003 -0.991
2410 3 11.133 9.515 37.951 -0.001 -0.005 0.004 -1.260
2411 3 14.332 10.800 37.290 -0.005 0.000 -0.007 -1.252
2412 3 11.063 8.823 46.812 0.004 0.005 0.005 -1.137
2413 3 14.729 11.122 46.687 0.000 0.007 0.004 -1.084
2414 3 12.238 11.500 23.094 -0.005 0.007 0.002 -1.040
2416 3 12.525 11.026 31.539 0.000 -0.005 -0.003 -1.324
2418 3 12.347 11.131 41.842 -0.003 -0.006 -0.002 -1.090
2420 3 12.094 11.293 50.336 0.006 -0.003 -0.002 -1.109
2422 3 13.188 8.659 25.600 -0.002 -0.000 0.002 -1.102
2424 3 13.889 9.424 34.589 -0.001 -0.005 -0.004 -1.168
2426 3 13.507 9.375 44.174 -0.004 -0.004 -0.001 -1.168
2428 3 10.705 9.340 23.414 0.003 -0.003 -0.002 -1.097
2429 3 14.615 11.256 24.188 -0.001 0.004 -0.001 -1.068
2430 3 12.950 10.772 27.463 0.002 -0.007 0.003 -0.987
2432 3 11.918 11.404 36.020 -0.003 -0.000 0.000 -1.262
2434 3 11.492 8.577 42.437 0.002 0.001 -0.003 -1.063
2435 3 14.823 10.835 42.391 0.003 0.002 0.008 -1.163
2436 3 12.538 11.407 45.277 0.004 0.001 0.004 -1.049
2438 3 11.090 9.334 51.602 -0.001 -0.001 -0.001 -1.042
2439 3 13.990 11.116 51.930 -0.001 -0.006 0.003 -0.982
2440 3 11.318 9.841 33.511 -0.001 0.007 -0.002 -1.155
2441 3 14.699 11.474 33.160 -0.001 -0.004 0.008 -1.265
2442 3 13.261 9.167 19.932 -0.002 -0.005 -0.001 -0.969
2444 3 13.944 9.169 30.341 -0.001 0.003 -0.001 -1.148
2446 3 12.969 9.542 39.612 0.001 -0.001 0.006 -1.257
2448 3 13.862 9.736 48.939 0.002 0.003 0.005 -1.056
2450 1 11.285 8.945 26.487 0.002 0.002 -0.000 2.183
2451 1 14.521 11.279 26.352 0.003 0.000 -0.002 2.207
2452 1 11.083 9.495 35.614 0.000 -0.003 -0.003 2.120
2453 1 14.452 11.375 35.334 0.002 -0.000 0.003 2.257
2454 1 11.374 9.067 44.629 -0.002 0.001 -0.000 2.163
2455 1 14.464 11.222 44.581 0.002 -0.001 -0.001 2.238
2456 2 13.240 9.290 23.190 0.001 -0.001 0.000 1.718
2458 1 13.415 9.593 32.540 -0.001 0.002 -0.000 2.286
2460 1 13.518 9.336 41.590 0.002 -0.001 -0.002 2.267