ITEM: TIMESTEP
0
ITEM: NUMBER OF ATOMS
4033
ITEM: BOX BOUNDS pp pp pp
0.0 56.384
0.0 56.384
0.0 56.384
ITEM: ATOMS id element x y z type
1 Ni 24.668 19.382 8.81 28
2 Ni 26.43 17.62 8.81 28
3 Ni 26.43 19.382 7.048 28
4 Ni 21.144 22.906 8.81 28
5 Ni 22.906 21.144 8.81 28
6 Ni 22.906 22.906 7.048 28
7 Ni 24.668 21.144 7.048 28
8 Ni 24.668 22.906 8.81 28
9 Ni 26.43 21.144 8.81 28
10 Ni 26.43 22.906 7.048 28
11 Ni 17.62 26.43 8.81 28
12 Ni 19.382 24.668 8.81 28
13 Ni 19.382 26.43 7.048 28
14 Ni 21.144 24.668 7.048 28
15 Ni 21.144 26.43 8.81 28
16 Ni 22.906 24.668 8.81 28
17 Ni 22.906 26.43 7.048 28
18 Ni 24.668 24.668 7.048 28
19 Ni 24.668 26.43 8.81 28
20 Ni 26.43 24.668 8.81 28
21 Ni 26.43 26.43 7.048 28
22 Ni 24.668 15.858 12.334 28
23 Ni 26.43 14.096 12.334 28
24 Ni 26.43 15.858 10.572 28
25 Ni 21.144 19.382 12.334 28
26 Ni 22.906 17.62 12.334 28
27 Ni 22.906 19.382 10.572 28
28 Ni 24.668 17.62 10.572 28
29 Ni 24.668 19.382 12.334 28
30 Ni 26.43 17.62 12.334 28
31 Ni 26.43 19.382 10.572 28
32 Ni 17.62 22.906 12.334 28
33 Ni 19.382 21.144 12.334 28
34 Ni 19.382 22.906 10.572 28
35 Ni 21.144 21.144 10.572 28
36 Ni 21.144 22.906 12.334 28
37 Ni 22.906 21.144 12.334 28
38 Ni 22.906 22.906 10.572 28
39 Ni 24.668 21.144 10.572 28
40 Ni 24.668 22.906 12.334 28
41 Ni 26.43 21.144 12.334 28
42 Ni 26.43 22.906 10.572 28
43 Ni 14.096 26.43 12.334 28
44 Ni 15.858 24.668 12.334 28
45 Ni 15.858 26.43 10.572 28
46 Ni 17.62 24.668 10.572 28
47 Ni 17.62 26.43 12.334 28
48 Ni 19.382 24.668 12.334 28
49 Ni 19.382 26.43 10.572 28
50 Ni 21.144 24.668 10.572 28
51 Ni 21.144 26.43 12.334 28
52 Ni 22.906 24.668 12.334 28
53 Ni 22.906 26.43 10.572 28
54 Ni 24.668 24.668 10.572 28
55 Ni 24.668 26.43 12.334 28
56 Ni 26.43 24.668 12.334 28
57 Ni 26.43 26.43 10.572 28
58 Ni 24.668 12.334 15.858 28
59 Ni 26.43 10.572 15.858 28
60 Ni 26.43 12.334 14.096 28
61 Ni 21.144 15.858 15.858 28
62 Ni 22.906 14.096 15.858 28
63 Ni 22.906 15.858 14.096 28
64 Ni 24.668 14.096 14.096 28
65 Ni 24.668 15.858 15.858 28
66 Ni 26.43 14.096 15.858 28
67 Ni 26.43 15.858 14.096 28
68 Ni 17.62 19.382 15.858 28
69 Ni 19.382 17.62 15.858 28
70 Ni 19.382 19.382 14.096 28
71 Ni 21.144 17.62 14.096 28
72 Ni 21.144 19.382 15.858 28
73 Ni 22.906 17.62 15.858 28
74 Ni 22.906 19.382 14.096 28
75 Ni 24.668 17.62 14.096 28
76 Ni 24.668 19.382 15.858 28
77 Ni 26.43 17.62 15.858 28
78 Ni 26.43 19.382 14.096 28
79 Ni 14.096 22.906 15.858 28
80 Ni 15.858 21.144 15.858 28
81 Ni 15.858 22.906 14.096 28
82 Ni 17.62 21.144 14.096 28
83 Ni 17.62 22.906 15.858 28
84 Ni 19.382 21.144 15.858 28
85 Ni 19.382 22.906 14.096 28
86 Ni 21.144 21.144 14.096 28
87 Ni 21.144 22.906 15.858 28
88 Ni 22.906 21.144 15.858 28
89 Ni 22.906 22.906 14.096 28
90 Ni 24.668 21.144 14.096 28
91 Ni 24.668 22.906 15.858 28
92 Ni 26.43 21.144 15.858 28
93 Ni 26.43 22.906 14.096 28
94 Ni 10.572 26.43 15.858 28
95 Ni 12.334 24.668 15.858 28
96 Ni 12.334 26.43 14.096 28
97 Ni 14.096 24.668 14.096 28
98 Ni 14.096 26.43 15.858 28
99 Ni 15.858 24.668 15.858 28
100 Ni 15.858 26.43 14.096 28
101 Ni 17.62 24.668 14.096 28
102 Ni 17.62 26.43 15.858 28
103 Ni 19.382 24.668 15.858 28
104 Ni 19.382 26.43 14.096 28
105 Ni 21.144 24.668 14.096 28
106 Ni 21.144 26.43 15.858 28
107 Ni 22.906 24.668 15.858 28
108 Ni 22.906 26.43 14.096 28
109 Ni 24.668 24.668 14.096 28
110 Ni 24.668 26.43 15.858 28
111 Ni 26.43 24.668 15.858 28
112 Ni 26.43 26.43 14.096 28
113 Ni 24.668 8.81 19.382 28
114 Ni 26.43 7.048 19.382 28
115 Ni 26.43 8.81 17.62 28
116 Ni 21.144 12.334 19.382 28
117 Ni 22.906 10.572 19.382 28
118 Ni 22.906 12.334 17.62 28
119 Ni 24.668 10.572 17.62 28
120 Ni 24.668 12.334 19.382 28
121 Ni 26.43 10.572 19.382 28
122 Ni 26.43 12.334 17.62 28
123 Ni 17.62 15.858 19.382 28
124 Ni 19.382 14.096 19.382 28
125 Ni 19.382 15.858 17.62 28
126 Ni 21.144 14.096 17.62 28
127 Ni 21.144 15.858 19.382 28
128 Ni 22.906 14.096 19.382 28
129 Ni 22.906 15.858 17.62 28
130 Ni 24.668 14.096 17.62 28
131 Ni 24.668 15.858 19.382 28
132 Ni 26.43 14.096 19.382 28
133 Ni 26.43 15.858 17.62 28
134 Ni 14.096 19.382 19.382 28
135 Ni 15.858 17.62 19.382 28
136 Ni 15.858 19.382 17.62 28
137 Ni 17.62 17.62 17.62 28
138 Ni 17.62 19.382 19.382 28
139 Ni 19.382 17.62 19.382 28
140 Ni 19.382 19.382 17.62 28
141 Ni 21.144 17.62 17.62 28
142 Ni 21.144 19.382 19.382 28
143 Ni 22.906 17.62 19.382 28
144 Ni 22.906 19.382 17.62 28
145 Ni 24.668 17.62 17.62 28
146 Ni 24.668 19.382 19.382 28
147 Ni 26.43 17.62 19.382 28
148 Ni 26.43 19.382 17.62 28
149 Ni 10.572 22.906 19.382 28
150 Ni 12.334 21.144 19.382 28
151 Ni 12.334 22.906 17.62 28
152 Ni 14.096 21.144 17.62 28
153 Ni 14.096 22.906 19.382 28
154 Ni 15.858 21.144 19.382 28
155 Ni 15.858 22.906 17.62 28
156 Ni 17.62 21.144 17.62 28
157 Ni 17.62 22.906 19.382 28
158 Ni 19.382 21.144 19.382 28
159 Ni 19.382 22.906 17.62 28
160 Ni 21.144 21.144 17.62 28
161 Ni 21.144 22.906 19.382 28
162 Ni 22.906 21.144 19.382 28
163 Ni 22.906 22.906 17.62 28
164 Ni 24.668 21.144 17.62 28
165 Ni 24.668 22.906 19.382 28
166 Ni 26.43 21.144 19.382 28
167 Ni 26.43 22.906 17.62 28
168 Ni 7.048 26.43 19.382 28
169 Ni 8.81 24.668 19.382 28
170 Ni 8.81 26.43 17.62 28
171 Ni 10.572 24.668 17.62 28
172 Ni 10.572 26.43 19.382 28
173 Ni 12.334 24.668 19.382 28
174 Ni 12.334 26.43 17.62 28
175 Ni 14.096 24.668 17.62 28
176 Ni 14.096 26.43 19.382 28
177 Ni 15.858 24.668 19.382 28
178 Ni 15.858 26.43 17.62 28
179 Ni 17.62 24.668 17.62 28
180 Ni 17.62 26.43 19.382 28
181 Ni 19.382 24.668 19.382 28
182 Ni 19.382 26.43 17.62 28
183 Ni 21.144 24.668 17.62 28
184 Ni 21.144 26.43 19.382 28
185 Ni 22.906 24.668 19.382 28
186 Ni 22.906 26.43 17.62 28
187 Ni 24.668 24.668 17.62 28
188 Ni 24.668 26.43 19.382 28
189 Ni 26.43 24.668 19.382 28
190 Ni 26.43 26.43 17.62 28
191 Ni 21.144 8.81 22.906 28
192 Ni 22.906 7.048 22.906 28
193 Ni 22.906 8.81 21.144 28
194 Ni 24.668 7.048 21.144 28
195 Ni 24.668 8.81 22.906 28
196 Ni 26.43 7.048 22.906 28
197 Ni 26.43 8.81 21.144 28
198 Ni 17.62 12.334 22.906 28
199 Ni 19.382 10.572 22.906 28
200 Ni 19.382 12.334 21.144 28
201 Ni 21.144 10.572 21.144 28
202 Ni 21.144 12.334 22.906 28
203 Ni 22.906 10.572 22.906 28
204 Ni 22.906 12.334 21.144 28
205 Ni 24.668 10.572 21.144 28
206 Ni 24.668 12.334 22.906 28
207 Ni 26.43 10.572 22.906 28
208 Ni 26.43 12.334 21.144 28
209 Ni 14.096 15.858 22.906 28
210 Ni 15.858 14.096 22.906 28
211 Ni 15.858 15.858 21.144 28
212 Ni 17.62 14.096 21.144 28
213 Ni 17.62 15.858 22.906 28
214 Ni 19.382 14.096 22.906 28
215 Ni 19.382 15.858 21.144 28
216 Ni 21.144 14.096 21.144 28
217 Ni 21.144 15.858 22.906 28
218 Ni 22.906 14.096 22.906 28
219 Ni 22.906 15.858 21.144 28
220 Ni 24.668 14.096 21.144 28
221 Ni 24.668 15.858 22.906 28
222 Ni 26.43 14.096 22.906 28
223 Ni 26.43 15.858 21.144 28
224 Ni 10.572 19.382 22.906 28
225 Ni 12.334 17.62 22.906 28
226 Ni 12.334 19.382 21.144 28
227 Ni 14.096 17.62 21.144 28
228 Ni 14.096 19.382 22.906 28
229 Ni 15.858 17.62 22.906 28
230 Ni 15.858 19.382 21.144 28
231 Ni 17.62 17.62 21.144 28
232 Ni 17.62 19.382 22.906 28
233 Ni 19.382 17.62 22.906 28
234 Ni 19.382 19.382 21.144 28
235 Ni 21.144 17.62 21.144 28
236 Ni 21.144 19.382 22.906 28
237 Ni 22.906 17.62 22.906 28
238 Ni 22.906 19.382 21.144 28
239 Ni 24.668 17.62 21.144 28
240 Ni 24.668 19.382 22.906 28
241 Ni 26.43 17.62 22.906 28
242 Ni 26.43 19.382 21.144 28
243 Ni 7.048 22.906 22.906 28
244 Ni 8.81 21.144 22.906 28
245 Ni 8.81 22.906 21.144 28
246 Ni 10.572 21.144 21.144 28
247 Ni 10.572 22.906 22.906 28
248 Ni 12.334 21.144 22.906 28
249 Ni 12.334 22.906 21.144 28
250 Ni 14.096 21.144 21.144 28
251 Ni 14.096 22.906 22.906 28
252 Ni 15.858 21.144 22.906 28
253 Ni 15.858 22.906 21.144 28
254 Ni 17.62 21.144 21.144 28
255 Ni 17.62 22.906 22.906 28
256 Ni 19.382 21.144 22.906 28
257 Ni 19.382 22.906 21.144 28
258 Ni 21.144 21.144 21.144 28
259 Ni 21.144 22.906 22.906 28
260 Ni 22.906 21.144 22.906 28
261 Ni 22.906 22.906 21.144 28
262 Ni 24.668 21.144 21.144 28
263 Ni 24.668 22.906 22.906 28
264 Ni 26.43 21.144 22.906 28
265 Ni 26.43 22.906 21.144 28
266 Ni 7.048 24.668 21.144 28
267 Ni 7.048 26.43 22.906 28
268 Ni 8.81 24.668 22.906 28
269 Ni 8.81 26.43 21.144 28
270 Ni 10.572 24.668 21.144 28
271 Ni 10.572 26.43 22.906 28
272 Ni 12.334 24.668 22.906 28
273 Ni 12.334 26.43 21.144 28
274 Ni 14.096 24.668 21.144 28
275 Ni 14.096 26.43 22.906 28
276 Ni 15.858 24.668 22.906 28
277 Ni 15.858 26.43 21.144 28
278 Ni 17.62 24.668 21.144 28
279 Ni 17.62 26.43 22.906 28
280 Ni 19.382 24.668 22.906 28
281 Ni 19.382 26.43 21.144 28
282 Ni 21.144 24.668 21.144 28
283 Ni 21.144 26.43 22.906 28
284 Ni 22.906 24.668 22.906 28
285 Ni 22.906 26.43 21.144 28
286 Ni 24.668 24.668 21.144 28
287 Ni 24.668 26.43 22.906 28
288 Ni 26.43 24.668 22.906 28
289 Ni 26.43 26.43 21.144 28
290 Ni 17.62 8.81 26.43 28
291 Ni 19.382 7.048 26.43 28
292 Ni 19.382 8.81 24.668 28
293 Ni 21.144 7.048 24.668 28
294 Ni 21.144 8.81 26.43 28
295 Ni 22.906 7.048 26.43 28
296 Ni 22.906 8.81 24.668 28
297 Ni 24.668 7.048 24.668 28
298 Ni 24.668 8.81 26.43 28
299 Ni 26.43 7.048 26.43 28
300 Ni 26.43 8.81 24.668 28
301 Ni 14.096 12.334 26.43 28
302 Ni 15.858 10.572 26.43 28
303 Ni 15.858 12.334 24.668 28
304 Ni 17.62 10.572 24.668 28
305 Ni 17.62 12.334 26.43 28
306 Ni 19.382 10.572 26.43 28
307 Ni 19.382 12.334 24.668 28
308 Ni 21.144 10.572 24.668 28
309 Ni 21.144 12.334 26.43 28
310 Ni 22.906 10.572 26.43 28
311 Ni 22.906 12.334 24.668 28
312 Ni 24.668 10.572 24.668 28
313 Ni 24.668 12.334 26.43 28
314 Ni 26.43 10.572 26.43 28
315 Ni 26.43 12.334 24.668 28
316 Ni 10.572 15.858 26.43 28
317 Ni 12.334 14.096 26.43 28
318 Ni 12.334 15.858 24.668 28
319 Ni 14.096 14.096 24.668 28
320 Ni 14.096 15.858 26.43 28
321 Ni 15.858 14.096 26.43 28
322 Ni 15.858 15.858 24.668 28
323 Ni 17.62 14.096 24.668 28
324 Ni 17.62 15.858 26.43 28
325 Ni 19.382 14.096 26.43 28
326 Ni 19.382 15.858 24.668 28
327 Ni 21.144 14.096 24.668 28
328 Ni 21.144 15.858 26.43 28
329 Ni 22.906 14.096 26.43 28
330 Ni 22.906 15.858 24.668 28
331 Ni 24.668 14.096 24.668 28
332 Ni 24.668 15.858 26.43 28
333 Ni 26.43 14.096 26.43 28
334 Ni 26.43 15.858 24.668 28
335 Ni 7.048 19.382 26.43 28
336 Ni 8.81 17.62 26.43 28
337 Ni 8.81 19.382 24.668 28
338 Ni 10.572 17.62 24.668 28
339 Ni 10.572 19.382 26.43 28
340 Ni 12.334 17.62 26.43 28
341 Ni 12.334 19.382 24.668 28
342 Ni 14.096 17.62 24.668 28
343 Ni 14.096 19.382 26.43 28
344 Ni 15.858 17.62 26.43 28
345 Ni 15.858 19.382 24.668 28
346 Ni 17.62 17.62 24.668 28
347 Ni 17.62 19.382 26.43 28
348 Ni 19.382 17.62 26.43 28
349 Ni 19.382 19.382 24.668 28
350 Ni 21.144 17.62 24.668 28
351 Ni 21.144 19.382 26.43 28
352 Ni 22.906 17.62 26.43 28
353 Ni 22.906 19.382 24.668 28
354 Ni 24.668 17.62 24.668 28
355 Ni 24.668 19.382 26.43 28
356 Ni 26.43 17.62 26.43 28
357 Ni 26.43 19.382 24.668 28
358 Ni 7.048 21.144 24.668 28
359 Ni 7.048 22.906 26.43 28
360 Ni 8.81 21.144 26.43 28
361 Ni 8.81 22.906 24.668 28
362 Ni 10.572 21.144 24.668 28
363 Ni 10.572 22.906 26.43 28
364 Ni 12.334 21.144 26.43 28
365 Ni 12.334 22.906 24.668 28
366 Ni 14.096 21.144 24.668 28
367 Ni 14.096 22.906 26.43 28
368 Ni 15.858 21.144 26.43 28
369 Ni 15.858 22.906 24.668 28
370 Ni 17.62 21.144 24.668 28
371 Ni 17.62 22.906 26.43 28
372 Ni 19.382 21.144 26.43 28
373 Ni 19.382 22.906 24.668 28
374 Ni 21.144 21.144 24.668 28
375 Ni 21.144 22.906 26.43 28
376 Ni 22.906 21.144 26.43 28
377 Ni 22.906 22.906 24.668 28
378 Ni 24.668 21.144 24.668 28
379 Ni 24.668 22.906 26.43 28
380 Ni 26.43 21.144 26.43 28
381 Ni 26.43 22.906 24.668 28
382 Ni 7.048 24.668 24.668 28
383 Ni 7.048 26.43 26.43 28
384 Ni 8.81 24.668 26.43 28
385 Ni 8.81 26.43 24.668 28
386 Ni 10.572 24.668 24.668 28
387 Ni 10.572 26.43 26.43 28
388 Ni 12.334 24.668 26.43 28
389 Ni 12.334 26.43 24.668 28
390 Ni 14.096 24.668 24.668 28
391 Ni 14.096 26.43 26.43 28
392 Ni 15.858 24.668 26.43 28
393 Ni 15.858 26.43 24.668 28
394 Ni 17.62 24.668 24.668 28
395 Ni 17.62 26.43 26.43 28
396 Ni 19.382 24.668 26.43 28
397 Ni 19.382 26.43 24.668 28
398 Ni 21.144 24.668 24.668 28
399 Ni 21.144 26.43 26.43 28
400 Ni 22.906 24.668 26.43 28
401 Ni 22.906 26.43 24.668 28
402 Ni 24.668 24.668 24.668 28
403 Ni 24.668 26.43 26.43 28
404 Ni 26.43 24.668 26.43 28
405 Ni 26.43 26.43 24.668 28
406 Ni 28.192 15.858 8.81 28
407 Ni 28.192 17.62 7.048 28
408 Ni 28.192 19.382 8.81 28
409 Ni 29.954 17.62 8.81 28
410 Ni 29.954 19.382 7.048 28
411 Ni 31.716 19.382 8.81 28
412 Ni 28.192 21.144 7.048 28
413 Ni 28.192 22.906 8.81 28
414 Ni 29.954 21.144 8.81 28
415 Ni 29.954 22.906 7.048 28
416 Ni 31.716 21.144 7.048 28
417 Ni 31.716 22.906 8.81 28
418 Ni 33.478 21.144 8.81 28
419 Ni 33.478 22.906 7.048 28
420 Ni 35.24 22.906 8.81 28
421 Ni 28.192 24.668 7.048 28
422 Ni 28.192 26.43 8.81 28
423 Ni 29.954 24.668 8.81 28
424 Ni 29.954 26.43 7.048 28
425 Ni 31.716 24.668 7.048 28
426 Ni 31.716 26.43 8.81 28
427 Ni 33.478 24.668 8.81 28
428 Ni 33.478 26.43 7.048 28
429 Ni 35.24 24.668 7.048 28
430 Ni 35.24 26.43 8.81 28
431 Ni 37.002 24.668 8.81 28
432 Ni 37.002 26.43 7.048 28
433 Ni 38.764 26.43 8.81 28
434 Ni 28.192 12.334 12.334 28
435 Ni 28.192 14.096 10.572 28
436 Ni 28.192 15.858 12.334 28
437 Ni 29.954 14.096 12.334 28
438 Ni 29.954 15.858 10.572 28
439 Ni 31.716 15.858 12.334 28
440 Ni 28.192 17.62 10.572 28
441 Ni 28.192 19.382 12.334 28
442 Ni 29.954 17.62 12.334 28
443 Ni 29.954 19.382 10.572 28
444 Ni 31.716 17.62 10.572 28
445 Ni 31.716 19.382 12.334 28
446 Ni 33.478 17.62 12.334 28
447 Ni 33.478 19.382 10.572 28
448 Ni 35.24 19.382 12.334 28
449 Ni 28.192 21.144 10.572 28
450 Ni 28.192 22.906 12.334 28
451 Ni 29.954 21.144 12.334 28
452 Ni 29.954 22.906 10.572 28
453 Ni 31.716 21.144 10.572 28
454 Ni 31.716 22.906 12.334 28
455 Ni 33.478 21.144 12.334 28
456 Ni 33.478 22.906 10.572 28
457 Ni 35.24 21.144 10.572 28
458 Ni 35.24 22.906 12.334 28
459 Ni 37.002 21.144 12.334 28
460 Ni 37.002 22.906 10.572 28
461 Ni 38.764 22.906 12.334 28
462 Ni 28.192 24.668 10.572 28
463 Ni 28.192 26.43 12.334 28
464 Ni 29.954 24.668 12.334 28
465 Ni 29.954 26.43 10.572 28
466 Ni 31.716 24.668 10.572 28
467 Ni 31.716 26.43 12.334 28
468 Ni 33.478 24.668 12.334 28
469 Ni 33.478 26.43 10.572 28
470 Ni 35.24 24.668 10.572 28
471 Ni 35.24 26.43 12.334 28
472 Ni 37.002 24.668 12.334 28
473 Ni 37.002 26.43 10.572 28
474 Ni 38.764 24.668 10.572 28
475 Ni 38.764 26.43 12.334 28
476 Ni 40.526 24.668 12.334 28
477 Ni 40.526 26.43 10.572 28
478 Ni 42.288 26.43 12.334 28
479 Ni 28.192 8.81 15.858 28
480 Ni 28.192 10.572 14.096 28
481 Ni 28.192 12.334 15.858 28
482 Ni 29.954 10.572 15.858 28
483 Ni 29.954 12.334 14.096 28
484 Ni 31.716 12.334 15.858 28
485 Ni 28.192 14.096 14.096 28
486 Ni 28.192 15.858 15.858 28
487 Ni 29.954 14.096 15.858 28
488 Ni 29.954 15.858 14.096 28
489 Ni 31.716 14.096 14.096 28
490 Ni 31.716 15.858 15.858 28
491 Ni 33.478 14.096 15.858 28
492 Ni 33.478 15.858 14.096 28
493 Ni 35.24 15.858 15.858 28
494 Ni 28.192 17.62 14.096 28
495 Ni 28.192 19.382 15.858 28
496 Ni 29.954 17.62 15.858 28
497 Ni 29.954 19.382 14.096 28
498 Ni 31.716 17.62 14.096 28
499 Ni 31.716 19.382 15.858 28
500 Ni 33.478 17.62 15.858 28
501 Ni 33.478 19.382 14.096 28
502 Ni 35.24 17.62 14.096 28
503 Ni 35.24 19.382 15.858 28
504 Ni 37.002 17.62 15.858 28
505 Ni 37.002 19.382 14.096 28
506 Ni 38.764 19.382 15.858 28
507 Ni 28.192 21.144 14.096 28
508 Ni 28.192 22.906 15.858 28
509 Ni 29.954 21.144 15.858 28
510 Ni 29.954 22.906 14.096 28
511 Ni 31.716 21.144 14.096 28
512 Ni 31.716 22.906 15.858 28
513 Ni 33.478 21.144 15.858 28
514 Ni 33.478 22.906 14.096 28
515 Ni 35.24 21.144 14.096 28
516 Ni 35.24 22.906 15.858 28
517 Ni 37.002 21.144 15.858 28
518 Ni 37.002 22.906 14.096 28
519 Ni 38.764 21.144 14.096 28
520 Ni 38.764 22.906 15.858 28
521 Ni 40.526 21.144 15.858 28
522 Ni 40.526 22.906 14.096 28
523 Ni 42.288 22.906 15.858 28
524 Ni 28.192 24.668 14.096 28
525 Ni 28.192 26.43 15.858 28
526 Ni 29.954 24.668 15.858 28
527 Ni 29.954 26.43 14.096 28
528 Ni 31.716 24.668 14.096 28
529 Ni 31.716 26.43 15.858 28
530 Ni 33.478 24.668 15.858 28
531 Ni 33.478 26.43 14.096 28
532 Ni 35.24 24.668 14.096 28
533 Ni 35.24 26.43 15.858 28
534 Ni 37.002 24.668 15.858 28
535 Ni 37.002 26.43 14.096 28
536 Ni 38.764 24.668 14.096 28
537 Ni 38.764 26.43 15.858 28
538 Ni 40.526 24.668 15.858 28
539 Ni 40.526 26.43 14.096 28
540 Ni 42.288 24.668 14.096 28
541 Ni 42.288 26.43 15.858 28
542 Ni 44.05 24.668 15.858 28
543 Ni 44.05 26.43 14.096 28
544 Ni 45.812 26.43 15.858 28
545 Ni 28.192 7.048 17.62 28
546 Ni 28.192 8.81 19.382 28
547 Ni 29.954 7.048 19.382 28
548 Ni 29.954 8.81 17.62 28
549 Ni 31.716 8.81 19.382 28
550 Ni 28.192 10.572 17.62 28
551 Ni 28.192 12.334 19.382 28
552 Ni 29.954 10.572 19.382 28
553 Ni 29.954 12.334 17.62 28
554 Ni 31.716 10.572 17.62 28
555 Ni 31.716 12.334 19.382 28
556 Ni 33.478 10.572 19.382 28
557 Ni 33.478 12.334 17.62 28
558 Ni 35.24 12.334 19.382 28
559 Ni 28.192 14.096 17.62 28
560 Ni 28.192 15.858 19.382 28
561 Ni 29.954 14.096 19.382 28
562 Ni 29.954 15.858 17.62 28
563 Ni 31.716 14.096 17.62 28
564 Ni 31.716 15.858 19.382 28
565 Ni 33.478 14.096 19.382 28
566 Ni 33.478 15.858 17.62 28
567 Ni 35.24 14.096 17.62 28
568 Ni 35.24 15.858 19.382 28
569 Ni 37.002 14.096 19.382 28
570 Ni 37.002 15.858 17.62 28
571 Ni 38.764 15.858 19.382 28
572 Ni 28.192 17.62 17.62 28
573 Ni 28.192 19.382 19.382 28
574 Ni 29.954 17.62 19.382 28
575 Ni 29.954 19.382 17.62 28
576 Ni 31.716 17.62 17.62 28
577 Ni 31.716 19.382 19.382 28
578 Ni 33.478 17.62 19.382 28
579 Ni 33.478 19.382 17.62 28
580 Ni 35.24 17.62 17.62 28
581 Ni 35.24 19.382 19.382 28
582 Ni 37.002 17.62 19.382 28
583 Ni 37.002 19.382 17.62 28
584 Ni 38.764 17.62 17.62 28
585 Ni 38.764 19.382 19.382 28
586 Ni 40.526 17.62 19.382 28
587 Ni 40.526 19.382 17.62 28
588 Ni 42.288 19.382 19.382 28
589 Ni 28.192 21.144 17.62 28
590 Ni 28.192 22.906 19.382 28
591 Ni 29.954 21.144 19.382 28
592 Ni 29.954 22.906 17.62 28
593 Ni 31.716 21.144 17.62 28
594 Ni 31.716 22.906 19.382 28
595 Ni 33.478 21.144 19.382 28
596 Ni 33.478 22.906 17.62 28
597 Ni 35.24 21.144 17.62 28
598 Ni 35.24 22.906 19.382 28
599 Ni 37.002 21.144 19.382 28
600 Ni 37.002 22.906 17.62 28
601 Ni 38.764 21.144 17.62 28
602 Ni 38.764 22.906 19.382 28
603 Ni 40.526 21.144 19.382 28
604 Ni 40.526 22.906 17.62 28
605 Ni 42.288 21.144 17.62 28
606 Ni 42.288 22.906 19.382 28
607 Ni 44.05 21.144 19.382 28
608 Ni 44.05 22.906 17.62 28
609 Ni 45.812 22.906 19.382 28
610 Ni 28.192 24.668 17.62 28
611 Ni 28.192 26.43 19.382 28
612 Ni 29.954 24.668 19.382 28
613 Ni 29.954 26.43 17.62 28
614 Ni 31.716 24.668 17.62 28
615 Ni 31.716 26.43 19.382 28
616 Ni 33.478 24.668 19.382 28
617 Ni 33.478 26.43 17.62 28
618 Ni 35.24 24.668 17.62 28
619 Ni 35.24 26.43 19.382 28
620 Ni 37.002 24.668 19.382 28
621 Ni 37.002 26.43 17.62 28
622 Ni 38.764 24.668 17.62 28
623 Ni 38.764 26.43 19.382 28
624 Ni 40.526 24.668 19.382 28
625 Ni 40.526 26.43 17.62 28
626 Ni 42.288 24.668 17.62 28
627 Ni 42.288 26.43 19.382 28
628 Ni 44.05 24.668 19.382 28
629 Ni 44.05 26.43 17.62 28
630 Ni 45.812 24.668 17.62 28
631 Ni 45.812 26.43 19.382 28
632 Ni 47.574 24.668 19.382 28
633 Ni 47.574 26.43 17.62 28
634 Ni 49.336 26.43 19.382 28
635 Ni 28.192 7.048 21.144 28
636 Ni 28.192 8.81 22.906 28
637 Ni 29.954 7.048 22.906 28
638 Ni 29.954 8.81 21.144 28
639 Ni 31.716 7.048 21.144 28
640 Ni 31.716 8.81 22.906 28
641 Ni 33.478 7.048 22.906 28
642 Ni 33.478 8.81 21.144 28
643 Ni 35.24 8.81 22.906 28
644 Ni 28.192 10.572 21.144 28
645 Ni 28.192 12.334 22.906 28
646 Ni 29.954 10.572 22.906 28
647 Ni 29.954 12.334 21.144 28
648 Ni 31.716 10.572 21.144 28
649 Ni 31.716 12.334 22.906 28
650 Ni 33.478 10.572 22.906 28
651 Ni 33.478 12.334 21.144 28
652 Ni 35.24 10.572 21.144 28
653 Ni 35.24 12.334 22.906 28
654 Ni 37.002 10.572 22.906 28
655 Ni 37.002 12.334 21.144 28
656 Ni 38.764 12.334 22.906 28
657 Ni 28.192 14.096 21.144 28
658 Ni 28.192 15.858 22.906 28
659 Ni 29.954 14.096 22.906 28
660 Ni 29.954 15.858 21.144 28
661 Ni 31.716 14.096 21.144 28
662 Ni 31.716 15.858 22.906 28
663 Ni 33.478 14.096 22.906 28
664 Ni 33.478 15.858 21.144 28
665 Ni 35.24 14.096 21.144 28
666 Ni 35.24 15.858 22.906 28
667 Ni 37.002 14.096 22.906 28
668 Ni 37.002 15.858 21.144 28
669 Ni 38.764 14.096 21.144 28
670 Ni 38.764 15.858 22.906 28
671 Ni 40.526 14.096 22.906 28
672 Ni 40.526 15.858 21.144 28
673 Ni 42.288 15.858 22.906 28
674 Ni 28.192 17.62 21.144 28
675 Ni 28.192 19.382 22.906 28
676 Ni 29.954 17.62 22.906 28
677 Ni 29.954 19.382 21.144 28
678 Ni 31.716 17.62 21.144 28
679 Ni 31.716 19.382 22.906 28
680 Ni 33.478 17.62 22.906 28
681 Ni 33.478 19.382 21.144 28
682 Ni 35.24 17.62 21.144 28
683 Ni 35.24 19.382 22.906 28
684 Ni 37.002 17.62 22.906 28
685 Ni 37.002 19.382 21.144 28
686 Ni 38.764 17.62 21.144 28
687 Ni 38.764 19.382 22.906 28
688 Ni 40.526 17.62 22.906 28
689 Ni 40.526 19.382 21.144 28
690 Ni 42.288 17.62 21.144 28
691 Ni 42.288 19.382 22.906 28
692 Ni 44.05 17.62 22.906 28
693 Ni 44.05 19.382 21.144 28
694 Ni 45.812 19.382 22.906 28
695 Ni 28.192 21.144 21.144 28
696 Ni 28.192 22.906 22.906 28
697 Ni 29.954 21.144 22.906 28
698 Ni 29.954 22.906 21.144 28
699 Ni 31.716 21.144 21.144 28
700 Ni 31.716 22.906 22.906 28
701 Ni 33.478 21.144 22.906 28
702 Ni 33.478 22.906 21.144 28
703 Ni 35.24 21.144 21.144 28
704 Ni 35.24 22.906 22.906 28
705 Ni 37.002 21.144 22.906 28
706 Ni 37.002 22.906 21.144 28
707 Ni 38.764 21.144 21.144 28
708 Ni 38.764 22.906 22.906 28
709 Ni 40.526 21.144 22.906 28
710 Ni 40.526 22.906 21.144 28
711 Ni 42.288 21.144 21.144 28
712 Ni 42.288 22.906 22.906 28
713 Ni 44.05 21.144 22.906 28
714 Ni 44.05 22.906 21.144 28
715 Ni 45.812 21.144 21.144 28
716 Ni 45.812 22.906 22.906 28
717 Ni 47.574 21.144 22.906 28
718 Ni 47.574 22.906 21.144 28
719 Ni 49.336 22.906 22.906 28
720 Ni 28.192 24.668 21.144 28
721 Ni 28.192 26.43 22.906 28
722 Ni 29.954 24.668 22.906 28
723 Ni 29.954 26.43 21.144 28
724 Ni 31.716 24.668 21.144 28
725 Ni 31.716 26.43 22.906 28
726 Ni 33.478 24.668 22.906 28
727 Ni 33.478 26.43 21.144 28
728 Ni 35.24 24.668 21.144 28
729 Ni 35.24 26.43 22.906 28
730 Ni 37.002 24.668 22.906 28
731 Ni 37.002 26.43 21.144 28
732 Ni 38.764 24.668 21.144 28
733 Ni 38.764 26.43 22.906 28
734 Ni 40.526 24.668 22.906 28
735 Ni 40.526 26.43 21.144 28
736 Ni 42.288 24.668 21.144 28
737 Ni 42.288 26.43 22.906 28
738 Ni 44.05 24.668 22.906 28
739 Ni 44.05 26.43 21.144 28
740 Ni 45.812 24.668 21.144 28
741 Ni 45.812 26.43 22.906 28
742 Ni 47.574 24.668 22.906 28
743 Ni 47.574 26.43 21.144 28
744 Ni 49.336 24.668 21.144 28
745 Ni 49.336 26.43 22.906 28
746 Ni 28.192 7.048 24.668 28
747 Ni 28.192 8.81 26.43 28
748 Ni 29.954 7.048 26.43 28
749 Ni 29.954 8.81 24.668 28
750 Ni 31.716 7.048 24.668 28
751 Ni 31.716 8.81 26.43 28
752 Ni 33.478 7.048 26.43 28
753 Ni 33.478 8.81 24.668 28
754 Ni 35.24 7.048 24.668 28
755 Ni 35.24 8.81 26.43 28
756 Ni 37.002 7.048 26.43 28
757 Ni 37.002 8.81 24.668 28
758 Ni 38.764 8.81 26.43 28
759 Ni 28.192 10.572 24.668 28
760 Ni 28.192 12.334 26.43 28
761 Ni 29.954 10.572 26.43 28
762 Ni 29.954 12.334 24.668 28
763 Ni 31.716 10.572 24.668 28
764 Ni 31.716 12.334 26.43 28
765 Ni 33.478 10.572 26.43 28
766 Ni 33.478 12.334 24.668 28
767 Ni 35.24 10.572 24.668 28
768 Ni 35.24 12.334 26.43 28
769 Ni 37.002 10.572 26.43 28
770 Ni 37.002 12.334 24.668 28
771 Ni 38.764 10.572 24.668 28
772 Ni 38.764 12.334 26.43 28
773 Ni 40.526 10.572 26.43 28
774 Ni 40.526 12.334 24.668 28
775 Ni 42.288 12.334 26.43 28
776 Ni 28.192 14.096 24.668 28
777 Ni 28.192 15.858 26.43 28
778 Ni 29.954 14.096 26.43 28
779 Ni 29.954 15.858 24.668 28
780 Ni 31.716 14.096 24.668 28
781 Ni 31.716 15.858 26.43 28
782 Ni 33.478 14.096 26.43 28
783 Ni 33.478 15.858 24.668 28
784 Ni 35.24 14.096 24.668 28
785 Ni 35.24 15.858 26.43 28
786 Ni 37.002 14.096 26.43 28
787 Ni 37.002 15.858 24.668 28
788 Ni 38.764 14.096 24.668 28
789 Ni 38.764 15.858 26.43 28
790 Ni 40.526 14.096 26.43 28
791 Ni 40.526 15.858 24.668 28
792 Ni 42.288 14.096 24.668 28
793 Ni 42.288 15.858 26.43 28
794 Ni 44.05 14.096 26.43 28
795 Ni 44.05 15.858 24.668 28
796 Ni 45.812 15.858 26.43 28
797 Ni 28.192 17.62 24.668 28
798 Ni 28.192 19.382 26.43 28
799 Ni 29.954 17.62 26.43 28
800 Ni 29.954 19.382 24.668 28
801 Ni 31.716 17.62 24.668 28
802 Ni 31.716 19.382 26.43 28
803 Ni 33.478 17.62 26.43 28
804 Ni 33.478 19.382 24.668 28
805 Ni 35.24 17.62 24.668 28
806 Ni 35.24 19.382 26.43 28
807 Ni 37.002 17.62 26.43 28
808 Ni 37.002 19.382 24.668 28
809 Ni 38.764 17.62 24.668 28
810 Ni 38.764 19.382 26.43 28
811 Ni 40.526 17.62 26.43 28
812 Ni 40.526 19.382 24.668 28
813 Ni 42.288 17.62 24.668 28
814 Ni 42.288 19.382 26.43 28
815 Ni 44.05 17.62 26.43 28
816 Ni 44.05 19.382 24.668 28
817 Ni 45.812 17.62 24.668 28
818 Ni 45.812 19.382 26.43 28
819 Ni 47.574 17.62 26.43 28
820 Ni 47.574 19.382 24.668 28
821 Ni 49.336 19.382 26.43 28
822 Ni 28.192 21.144 24.668 28
823 Ni 28.192 22.906 26.43 28
824 Ni 29.954 21.144 26.43 28
825 Ni 29.954 22.906 24.668 28
826 Ni 31.716 21.144 24.668 28
827 Ni 31.716 22.906 26.43 28
828 Ni 33.478 21.144 26.43 28
829 Ni 33.478 22.906 24.668 28
830 Ni 35.24 21.144 24.668 28
831 Ni 35.24 22.906 26.43 28
832 Ni 37.002 21.144 26.43 28
833 Ni 37.002 22.906 24.668 28
834 Ni 38.764 21.144 24.668 28
835 Ni 38.764 22.906 26.43 28
836 Ni 40.526 21.144 26.43 28
837 Ni 40.526 22.906 24.668 28
838 Ni 42.288 21.144 24.668 28
839 Ni 42.288 22.906 26.43 28
840 Ni 44.05 21.144 26.43 28
841 Ni 44.05 22.906 24.668 28
842 Ni 45.812 21.144 24.668 28
843 Ni 45.812 22.906 26.43 28
844 Ni 47.574 21.144 26.43 28
845 Ni 47.574 22.906 24.668 28
846 Ni 49.336 21.144 24.668 28
847 Ni 49.336 22.906 26.43 28
848 Ni 28.192 24.668 24.668 28
849 Ni 28.192 26.43 26.43 28
850 Ni 29.954 24.668 26.43 28
851 Ni 29.954 26.43 24.668 28
852 Ni 31.716 24.668 24.668 28
853 Ni 31.716 26.43 26.43 28
854 Ni 33.478 24.668 26.43 28
855 Ni 33.478 26.43 24.668 28
856 Ni 35.24 24.668 24.668 28
857 Ni 35.24 26.43 26.43 28
858 Ni 37.002 24.668 26.43 28
859 Ni 37.002 26.43 24.668 28
860 Ni 38.764 24.668 24.668 28
861 Ni 38.764 26.43 26.43 28
862 Ni 40.526 24.668 26.43 28
863 Ni 40.526 26.43 24.668 28
864 Ni 42.288 24.668 24.668 28
865 Ni 42.288 26.43 26.43 28
866 Ni 44.05 24.668 26.43 28
867 Ni 44.05 26.43 24.668 28
868 Ni 45.812 24.668 24.668 28
869 Ni 45.812 26.43 26.43 28
870 Ni 47.574 24.668 26.43 28
871 Ni 47.574 26.43 24.668 28
872 Ni 49.336 24.668 24.668 28
873 Ni 49.336 26.43 26.43 28
874 Ni 15.858 28.192 8.81 28
875 Ni 17.62 28.192 7.048 28
876 Ni 17.62 29.954 8.81 28
877 Ni 19.382 28.192 8.81 28
878 Ni 19.382 29.954 7.048 28
879 Ni 21.144 28.192 7.048 28
880 Ni 21.144 29.954 8.81 28
881 Ni 22.906 28.192 8.81 28
882 Ni 22.906 29.954 7.048 28
883 Ni 24.668 28.192 7.048 28
884 Ni 24.668 29.954 8.81 28
885 Ni 26.43 28.192 8.81 28
886 Ni 26.43 29.954 7.048 28
887 Ni 19.382 31.716 8.81 28
888 Ni 21.144 31.716 7.048 28
889 Ni 21.144 33.478 8.81 28
890 Ni 22.906 31.716 8.81 28
891 Ni 22.906 33.478 7.048 28
892 Ni 24.668 31.716 7.048 28
893 Ni 24.668 33.478 8.81 28
894 Ni 26.43 31.716 8.81 28
895 Ni 26.43 33.478 7.048 28
896 Ni 22.906 35.24 8.81 28
897 Ni 24.668 35.24 7.048 28
898 Ni 24.668 37.002 8.81 28
899 Ni 26.43 35.24 8.81 28
900 Ni 26.43 37.002 7.048 28
901 Ni 26.43 38.764 8.81 28
902 Ni 12.334 28.192 12.334 28
903 Ni 14.096 28.192 10.572 28
904 Ni 14.096 29.954 12.334 28
905 Ni 15.858 28.192 12.334 28
906 Ni 15.858 29.954 10.572 28
907 Ni 17.62 28.192 10.572 28
908 Ni 17.62 29.954 12.334 28
909 Ni 19.382 28.192 12.334 28
910 Ni 19.382 29.954 10.572 28
911 Ni 21.144 28.192 10.572 28
912 Ni 21.144 29.954 12.334 28
913 Ni 22.906 28.192 12.334 28
914 Ni 22.906 29.954 10.572 28
915 Ni 24.668 28.192 10.572 28
916 Ni 24.668 29.954 12.334 28
917 Ni 26.43 28.192 12.334 28
918 Ni 26.43 29.954 10.572 28
919 Ni 15.858 31.716 12.334 28
920 Ni 17.62 31.716 10.572 28
921 Ni 17.62 33.478 12.334 28
922 Ni 19.382 31.716 12.334 28
923 Ni 19.382 33.478 10.572 28
924 Ni 21.144 31.716 10.572 28
925 Ni 21.144 33.478 12.334 28
926 Ni 22.906 31.716 12.334 28
927 Ni 22.906 33.478 10.572 28
928 Ni 24.668 31.716 10.572 28
929 Ni 24.668 33.478 12.334 28
930 Ni 26.43 31.716 12.334 28
931 Ni 26.43 33.478 10.572 28
932 Ni 19.382 35.24 12.334 28
933 Ni 21.144 35.24 10.572 28
934 Ni 21.144 37.002 12.334 28
935 Ni 22.906 35.24 12.334 28
936 Ni 22.906 37.002 10.572 28
937 Ni 24.668 35.24 10.572 28
938 Ni 24.668 37.002 12.334 28
939 Ni 26.43 35.24 12.334 28
940 Ni 26.43 37.002 10.572 28
941 Ni 22.906 38.764 12.334 28
942 Ni 24.668 38.764 10.572 28
943 Ni 24.668 40.526 12.334 28
944 Ni 26.43 38.764 12.334 28
945 Ni 26.43 40.526 10.572 28
946 Ni 26.43 42.288 12.334 28
947 Ni 8.81 28.192 15.858 28
948 Ni 10.572 28.192 14.096 28
949 Ni 10.572 29.954 15.858 28
950 Ni 12.334 28.192 15.858 28
951 Ni 12.334 29.954 14.096 28
952 Ni 14.096 28.192 14.096 28
953 Ni 14.096 29.954 15.858 28
954 Ni 15.858 28.192 15.858 28
955 Ni 15.858 29.954 14.096 28
956 Ni 17.62 28.192 14.096 28
957 Ni 17.62 29.954 15.858 28
958 Ni 19.382 28.192 15.858 28
959 Ni 19.382 29.954 14.096 28
960 Ni 21.144 28.192 14.096 28
961 Ni 21.144 29.954 15.858 28
962 Ni 22.906 28.192 15.858 28
963 Ni 22.906 29.954 14.096 28
964 Ni 24.668 28.192 14.096 28
965 Ni 24.668 29.954 15.858 28
966 Ni 26.43 28.192 15.858 28
967 Ni 26.43 29.954 14.096 28
968 Ni 12.334 31.716 15.858 28
969 Ni 14.096 31.716 14.096 28
970 Ni 14.096 33.478 15.858 28
971 Ni 15.858 31.716 15.858 28
972 Ni 15.858 33.478 14.096 28
973 Ni 17.62 31.716 14.096 28
974 Ni 17.62 33.478 15.858 28
975 Ni 19.382 31.716 15.858 28
976 Ni 19.382 33.478 14.096 28
977 Ni 21.144 31.716 14.096 28
978 Ni 21.144 33.478 15.858 28
979 Ni 22.906 31.716 15.858 28
980 Ni 22.906 33.478 14.096 28
981 Ni 24.668 31.716 14.096 28
982 Ni 24.668 33.478 15.858 28
983 Ni 26.43 31.716 15.858 28
984 Ni 26.43 33.478 14.096 28
985 Ni 15.858 35.24 15.858 28
986 Ni 17.62 35.24 14.096 28
987 Ni 17.62 37.002 15.858 28
988 Ni 19.382 35.24 15.858 28
989 Ni 19.382 37.002 14.096 28
990 Ni 21.144 35.24 14.096 28
991 Ni 21.144 37.002 15.858 28
992 Ni 22.906 35.24 15.858 28
993 Ni 22.906 37.002 14.096 28
994 Ni 24.668 35.24 14.096 28