ITEM: TIMESTEP
0
ITEM: NUMBER OF ATOMS
4033
ITEM: BOX BOUNDS pp pp pp
0.0 56.384
0.0 56.384
0.0 56.384
ITEM: ATOMS id type mask x y z
1 4 0 13.87120282185856 35.66753289070418 13.883688562847954
2 4 0 14.599917138016576 34.42161074225348 11.85244720706909
3 4 0 14.599917138016576 36.913455039154876 11.85244720706909
4 4 0 12.41377418954253 38.15937718760557 17.946171274405682
5 4 0 13.142488505700545 36.91345503915487 15.914929918626818
6 4 0 13.142488505700545 39.40529933605627 15.914929918626818
7 4 0 13.871202821858558 38.15937718760557 13.88368856284795
8 4 0 15.300465993616937 38.15937718760557 15.924887912704595
9 4 0 16.029180309774954 36.91345503915487 13.89364655692573
10 4 0 16.029180309774954 39.40529933605627 13.89364655692573
11 4 0 10.956345557226506 40.65122148450696 22.008653985963406
12 4 0 11.685059873384517 39.40529933605627 19.977412630184546
13 4 0 11.685059873384517 41.897143632957665 19.977412630184546
14 4 0 12.41377418954253 40.65122148450696 17.946171274405682
15 4 0 13.84303736130091 40.65122148450696 19.987370624262322
16 4 0 14.571751677458924 39.40529933605627 17.95612926848346
17 4 0 14.571751677458924 41.897143632957665 17.95612926848346
18 4 0 15.300465993616937 40.65122148450696 15.924887912704595
19 4 0 16.729729165375318 40.65122148450696 17.96608726256124
20 4 0 17.458443481533333 39.40529933605627 15.934845906782373
21 4 0 17.458443481533333 41.897143632957665 15.934845906782373
22 4 0 13.871202821858558 30.68384429690139 13.88368856284795
23 4 0 14.599917138016572 29.437922148450696 11.852447207069087
24 4 0 14.599917138016572 31.92976644535209 11.852447207069087
25 4 0 12.41377418954253 33.17568859380279 17.946171274405682
26 4 0 13.142488505700545 31.92976644535209 15.914929918626818
27 4 0 13.142488505700545 34.421610742253485 15.914929918626818
28 4 0 13.871202821858558 33.17568859380279 13.88368856284795
29 4 0 15.300465993616937 33.17568859380279 15.924887912704595
30 4 0 16.029180309774954 31.92976644535209 13.89364655692573
31 4 0 16.029180309774954 34.421610742253485 13.89364655692573
32 4 0 10.956345557226506 35.66753289070418 22.008653985963406
33 4 0 11.685059873384517 34.421610742253485 19.97741263018454
34 4 0 11.685059873384517 36.913455039154876 19.97741263018454
35 4 0 12.413774189542528 35.66753289070418 17.94617127440568
36 4 0 13.843037361300908 35.66753289070418 19.98737062426232
37 4 0 14.571751677458924 34.421610742253485 17.956129268483455
38 4 0 14.571751677458924 36.913455039154876 17.956129268483455
39 4 0 15.300465993616935 35.66753289070418 15.924887912704591
40 4 0 16.729729165375318 35.66753289070418 17.96608726256123
41 4 0 17.45844348153333 34.421610742253485 15.93484590678237
42 4 0 17.45844348153333 36.913455039154876 15.93484590678237
43 4 0 9.498916924910475 38.15937718760557 26.071136697521133
44 4 0 10.227631241068487 36.913455039154876 24.03989534174227
45 4 0 10.227631241068487 39.405299336056274 24.03989534174227
46 4 0 10.956345557226506 38.15937718760557 22.008653985963406
47 4 0 12.385608728984884 38.15937718760557 24.049853335820046
48 4 0 13.114323045142896 36.913455039154876 22.018611980041182
49 4 0 13.114323045142896 39.405299336056274 22.018611980041182
50 4 0 13.843037361300908 38.15937718760557 19.98737062426232
51 4 0 15.272300533059287 38.15937718760557 22.028569974118962
52 4 0 16.001014849217302 36.913455039154876 19.9973286183401
53 4 0 16.001014849217302 39.405299336056274 19.9973286183401
54 4 0 16.729729165375318 38.15937718760557 17.96608726256123
55 4 0 18.158992337133697 38.15937718760557 20.00728661241788
56 4 0 18.88770665329171 36.913455039154876 17.97604525663901
57 4 0 18.88770665329171 39.405299336056274 17.97604525663901
58 4 0 13.871202821858558 25.700155703098602 13.88368856284795
59 4 0 14.599917138016572 24.454233554647907 11.852447207069087
60 4 0 14.599917138016572 26.9460778515493 11.852447207069087
61 4 0 12.413774189542531 28.192 17.946171274405682
62 4 0 13.142488505700545 26.9460778515493 15.914929918626818
63 4 0 13.142488505700545 29.437922148450696 15.914929918626818
64 4 0 13.871202821858558 28.192 13.88368856284795
65 4 0 15.300465993616939 28.192 15.924887912704596
66 4 0 16.029180309774954 26.9460778515493 13.89364655692573
67 4 0 16.029180309774954 29.437922148450696 13.89364655692573
68 4 0 10.956345557226506 30.68384429690139 22.008653985963406
69 4 0 11.685059873384517 29.437922148450696 19.977412630184546
70 4 0 11.685059873384517 31.92976644535209 19.977412630184546
71 4 0 12.41377418954253 30.68384429690139 17.946171274405682
72 4 0 13.84303736130091 30.68384429690139 19.987370624262322
73 4 0 14.571751677458924 29.437922148450696 17.95612926848346
74 4 0 14.571751677458924 31.92976644535209 17.95612926848346
75 4 0 15.300465993616937 30.68384429690139 15.924887912704595
76 4 0 16.729729165375318 30.68384429690139 17.96608726256124
77 4 0 17.458443481533333 29.437922148450696 15.934845906782373
78 4 0 17.458443481533333 31.92976644535209 15.934845906782373
79 4 0 9.498916924910475 33.17568859380278 26.071136697521133
80 4 0 10.22763124106849 31.929766445352087 24.039895341742273
81 4 0 10.22763124106849 34.42161074225348 24.039895341742273
82 4 0 10.956345557226506 33.17568859380278 22.008653985963406
83 4 0 12.385608728984884 33.17568859380278 24.049853335820046
84 4 0 13.114323045142896 31.929766445352087 22.018611980041186
85 4 0 13.114323045142896 34.42161074225348 22.018611980041186
86 4 0 13.843037361300908 33.17568859380278 19.98737062426232
87 4 0 15.272300533059287 33.17568859380278 22.028569974118962
88 4 0 16.001014849217302 31.929766445352087 19.9973286183401
89 4 0 16.001014849217302 34.42161074225348 19.9973286183401
90 4 0 16.729729165375318 33.17568859380278 17.96608726256123
91 4 0 18.158992337133697 33.17568859380278 20.00728661241788
92 4 0 18.88770665329171 31.929766445352087 17.97604525663901
93 4 0 18.88770665329171 34.42161074225348 17.97604525663901
94 4 0 8.041488292594448 35.66753289070418 30.133619409078864
95 4 0 8.77020260875246 34.42161074225348 28.1023780533
96 4 0 8.77020260875246 36.913455039154876 28.1023780533
97 4 0 9.498916924910475 35.66753289070418 26.071136697521133
98 4 0 10.928180096668854 35.66753289070418 28.112336047377777
99 4 0 11.656894412826869 34.42161074225348 26.081094691598913
100 4 0 11.656894412826869 36.913455039154876 26.081094691598913
101 4 0 12.385608728984884 35.66753289070418 24.049853335820046
102 4 0 13.814871900743263 35.66753289070418 26.09105268567669
103 4 0 14.543586216901275 34.42161074225348 24.059811329897826
104 4 0 14.543586216901275 36.913455039154876 24.059811329897826
105 4 0 15.272300533059287 35.66753289070418 22.028569974118962
106 4 0 16.701563704817666 35.66753289070418 24.069769323975606
107 4 0 17.43027802097568 34.42161074225348 22.03852796819674
108 4 0 17.43027802097568 36.913455039154876 22.03852796819674
109 4 0 18.158992337133697 35.66753289070418 20.00728661241788
110 4 0 19.588255508892075 35.66753289070418 22.04848596227452
111 4 0 20.316969825050087 34.42161074225348 20.01724460649565
112 4 0 20.316969825050087 36.913455039154876 20.01724460649565
113 4 0 13.871202821858562 20.71646710929582 13.883688562847958
114 4 0 14.599917138016576 19.47054496084512 11.85244720706909
115 4 0 14.599917138016576 21.962389257746516 11.85244720706909
116 4 0 12.413774189542531 23.20831140619721 17.946171274405682
117 4 0 13.142488505700545 21.962389257746512 15.914929918626818
118 4 0 13.142488505700545 24.454233554647907 15.914929918626818
119 4 0 13.871202821858558 23.20831140619721 13.88368856284795
120 4 0 15.300465993616939 23.20831140619721 15.924887912704596
121 4 0 16.029180309774954 21.962389257746512 13.89364655692573
122 4 0 16.029180309774954 24.454233554647907 13.89364655692573
123 4 0 10.956345557226506 25.700155703098606 22.00865398596341
124 4 0 11.685059873384517 24.454233554647907 19.977412630184546
125 4 0 11.685059873384517 26.9460778515493 19.977412630184546
126 4 0 12.413774189542531 25.700155703098606 17.946171274405682
127 4 0 13.84303736130091 25.700155703098606 19.987370624262326
128 4 0 14.571751677458924 24.454233554647907 17.95612926848346
129 4 0 14.571751677458924 26.9460778515493 17.95612926848346
130 4 0 15.300465993616939 25.700155703098606 15.924887912704596
131 4 0 16.729729165375318 25.700155703098606 17.96608726256124
132 4 0 17.458443481533333 24.454233554647907 15.934845906782373
133 4 0 17.458443481533333 26.9460778515493 15.934845906782373
134 4 0 9.498916924910478 28.192 26.071136697521137
135 4 0 10.22763124106849 26.9460778515493 24.039895341742273
136 4 0 10.22763124106849 29.437922148450696 24.039895341742273
137 4 0 10.956345557226506 28.192 22.008653985963406
138 4 0 12.385608728984884 28.192 24.04985333582005
139 4 0 13.1143230451429 26.9460778515493 22.018611980041186
140 4 0 13.1143230451429 29.437922148450696 22.018611980041186
141 4 0 13.84303736130091 28.192 19.987370624262322
142 4 0 15.27230053305929 28.192 22.028569974118966
143 4 0 16.001014849217306 26.9460778515493 19.997328618340102
144 4 0 16.001014849217306 29.437922148450696 19.997328618340102
145 4 0 16.729729165375318 28.192 17.96608726256124
146 4 0 18.158992337133697 28.192 20.00728661241788
147 4 0 18.887706653291712 26.9460778515493 17.97604525663902
148 4 0 18.887706653291712 29.437922148450696 17.97604525663902
149 4 0 8.041488292594448 30.68384429690139 30.133619409078864
150 4 0 8.770202608752463 29.437922148450696 28.1023780533
151 4 0 8.770202608752463 31.929766445352087 28.1023780533
152 4 0 9.498916924910475 30.68384429690139 26.071136697521133
153 4 0 10.928180096668854 30.68384429690139 28.112336047377777
154 4 0 11.656894412826869 29.437922148450696 26.081094691598913
155 4 0 11.656894412826869 31.929766445352087 26.081094691598913
156 4 0 12.385608728984884 30.68384429690139 24.049853335820046
157 4 0 13.814871900743263 30.68384429690139 26.09105268567669
158 4 0 14.543586216901277 29.437922148450696 24.059811329897826
159 4 0 14.543586216901277 31.929766445352087 24.059811329897826
160 4 0 15.272300533059287 30.68384429690139 22.028569974118962
161 4 0 16.701563704817666 30.68384429690139 24.069769323975606
162 4 0 17.43027802097568 29.437922148450696 22.038527968196743
163 4 0 17.43027802097568 31.929766445352087 22.038527968196743
164 4 0 18.158992337133697 30.68384429690139 20.00728661241788
165 4 0 19.588255508892075 30.68384429690139 22.04848596227452
166 4 0 20.31696982505009 29.437922148450696 20.017244606495655
167 4 0 20.31696982505009 31.929766445352087 20.017244606495655
168 4 0 6.584059660278424 33.17568859380278 34.19610212063659
169 4 0 7.312773976436436 31.929766445352087 32.16486076485773
170 4 0 7.312773976436436 34.421610742253485 32.16486076485773
171 4 0 8.041488292594448 33.17568859380279 30.133619409078864
172 4 0 9.470751464352826 33.17568859380278 32.17481875893551
173 4 0 10.199465780510842 31.929766445352087 30.14357740315664
174 4 0 10.199465780510842 34.421610742253485 30.14357740315664
175 4 0 10.928180096668854 33.17568859380279 28.112336047377777
176 4 0 12.357443268427236 33.17568859380278 30.15353539723442
177 4 0 13.086157584585248 31.929766445352087 28.122294041455554
178 4 0 13.086157584585248 34.421610742253485 28.122294041455554
179 4 0 13.814871900743263 33.17568859380279 26.09105268567669
180 4 0 15.244135072501642 33.17568859380278 28.132252035533334
181 4 0 15.972849388659656 31.929766445352087 26.101010679754467
182 4 0 15.972849388659656 34.421610742253485 26.101010679754467
183 4 0 16.701563704817666 33.17568859380279 24.069769323975606
184 4 0 18.130826876576048 33.17568859380278 26.110968673832247
185 4 0 18.85954119273406 31.929766445352087 24.079727318053383
186 4 0 18.85954119273406 34.421610742253485 24.079727318053383
187 4 0 19.588255508892075 33.17568859380279 22.04848596227452
188 4 0 21.017518680650454 33.17568859380278 24.08968531213116
189 4 0 21.74623299680847 31.929766445352087 22.0584439563523
190 4 0 21.74623299680847 34.421610742253485 22.0584439563523
191 4 0 12.413774189542531 18.22462281239443 17.946171274405682
192 4 0 13.142488505700545 16.97870066394373 15.914929918626818
193 4 0 13.142488505700545 19.470544960845125 15.914929918626818
194 4 0 13.87120282185856 18.22462281239443 13.883688562847954
195 4 0 15.300465993616939 18.22462281239443 15.924887912704596
196 4 0 16.029180309774954 16.97870066394373 13.89364655692573
197 4 0 16.029180309774954 19.470544960845125 13.89364655692573
198 4 0 10.956345557226506 20.71646710929582 22.008653985963406
199 4 0 11.685059873384517 19.47054496084512 19.97741263018454
200 4 0 11.685059873384517 21.962389257746516 19.97741263018454
201 4 0 12.41377418954253 20.71646710929582 17.946171274405682
202 4 0 13.843037361300908 20.71646710929582 19.987370624262322
203 4 0 14.571751677458924 19.47054496084512 17.956129268483455
204 4 0 14.571751677458924 21.962389257746516 17.956129268483455
205 4 0 15.300465993616937 20.71646710929582 15.924887912704595
206 4 0 16.729729165375318 20.71646710929582 17.966087262561235
207 4 0 17.45844348153333 19.47054496084512 15.93484590678237
208 4 0 17.45844348153333 21.962389257746516 15.93484590678237
209 4 0 9.498916924910475 23.208311406197215 26.071136697521137
210 4 0 10.22763124106849 21.962389257746516 24.039895341742273
211 4 0 10.22763124106849 24.45423355464791 24.039895341742273
212 4 0 10.956345557226506 23.208311406197215 22.008653985963406
213 4 0 12.385608728984884 23.208311406197215 24.04985333582005
214 4 0 13.114323045142896 21.962389257746516 22.018611980041186
215 4 0 13.114323045142896 24.45423355464791 22.018611980041186
216 4 0 13.84303736130091 23.208311406197215 19.987370624262322
217 4 0 15.272300533059289 23.208311406197215 22.028569974118966
218 4 0 16.001014849217302 21.962389257746516 19.9973286183401
219 4 0 16.001014849217302 24.45423355464791 19.9973286183401
220 4 0 16.729729165375318 23.208311406197215 17.96608726256124
221 4 0 18.158992337133697 23.208311406197215 20.00728661241788
222 4 0 18.88770665329171 21.962389257746516 17.97604525663901
223 4 0 18.88770665329171 24.45423355464791 17.97604525663901
224 4 0 8.041488292594448 25.70015570309861 30.133619409078868
225 4 0 8.770202608752463 24.45423355464791 28.1023780533
226 4 0 8.770202608752463 26.946077851549305 28.1023780533
227 4 0 9.498916924910475 25.70015570309861 26.071136697521137
228 4 0 10.928180096668857 25.70015570309861 28.11233604737778
229 4 0 11.656894412826869 24.45423355464791 26.081094691598913
230 4 0 11.656894412826869 26.946077851549305 26.081094691598913
231 4 0 12.385608728984884 25.70015570309861 24.04985333582005
232 4 0 13.814871900743263 25.70015570309861 26.091052685676694
233 4 0 14.543586216901277 24.45423355464791 24.059811329897826
234 4 0 14.543586216901277 26.946077851549305 24.059811329897826
235 4 0 15.272300533059289 25.70015570309861 22.028569974118966
236 4 0 16.70156370481767 25.70015570309861 24.069769323975606
237 4 0 17.43027802097568 24.45423355464791 22.038527968196743
238 4 0 17.43027802097568 26.946077851549305 22.038527968196743
239 4 0 18.158992337133697 25.70015570309861 20.00728661241788
240 4 0 19.588255508892075 25.70015570309861 22.04848596227452
241 4 0 20.31696982505009 24.45423355464791 20.017244606495655
242 4 0 20.31696982505009 26.946077851549305 20.017244606495655
243 4 0 6.58405966027842 28.192 34.19610212063659
244 4 0 7.312773976436436 26.946077851549305 32.16486076485772
245 4 0 7.312773976436436 29.437922148450696 32.16486076485772
246 4 0 8.041488292594448 28.192 30.13361940907886
247 4 0 9.470751464352826 28.192 32.17481875893551
248 4 0 10.199465780510838 26.946077851549305 30.14357740315664
249 4 0 10.199465780510838 29.437922148450696 30.14357740315664
250 4 0 10.928180096668854 28.192 28.112336047377774
251 4 0 12.357443268427234 28.192 30.153535397234418
252 4 0 13.086157584585248 26.946077851549305 28.122294041455554
253 4 0 13.086157584585248 29.437922148450696 28.122294041455554
254 4 0 13.814871900743263 28.192 26.091052685676686
255 4 0 15.244135072501642 28.192 28.13225203553333
256 4 0 15.972849388659654 26.946077851549305 26.101010679754467
257 4 0 15.972849388659654 29.437922148450696 26.101010679754467
258 4 0 16.701563704817666 28.192 24.069769323975603
259 4 0 18.130826876576045 28.192 26.110968673832247
260 4 0 18.85954119273406 26.946077851549305 24.079727318053383
261 4 0 18.85954119273406 29.437922148450696 24.079727318053383
262 4 0 19.588255508892075 28.192 22.04848596227452
263 4 0 21.017518680650454 28.192 24.08968531213116
264 4 0 21.746232996808466 26.946077851549305 22.058443956352296
265 4 0 21.746232996808466 29.437922148450696 22.058443956352296
266 4 0 6.58405966027842 30.683844296901395 34.19610212063659
267 4 0 8.013322832036803 30.683844296901395 36.237301470493236
268 4 0 8.742037148194814 29.437922148450696 34.20606011471437
269 4 0 8.742037148194814 31.92976644535209 34.20606011471437
270 4 0 9.470751464352826 30.683844296901395 32.17481875893551
271 4 0 10.900014636111205 30.683844296901395 34.21601810879215
272 4 0 11.628728952269217 29.437922148450696 32.18477675301328
273 4 0 11.628728952269217 31.92976644535209 32.18477675301328
274 4 0 12.357443268427234 30.683844296901395 30.153535397234418
275 4 0 13.786706440185613 30.683844296901395 32.19473474709106
276 4 0 14.515420756343627 29.437922148450696 30.163493391312194
277 4 0 14.515420756343627 31.92976644535209 30.163493391312194
278 4 0 15.244135072501642 30.683844296901395 28.13225203553333
279 4 0 16.67339824426002 30.683844296901395 30.173451385389974
280 4 0 17.402112560418033 29.437922148450696 28.142210029611107
281 4 0 17.402112560418033 31.92976644535209 28.142210029611107
282 4 0 18.130826876576045 30.683844296901395 26.110968673832247
283 4 0 19.560090048334423 30.683844296901395 28.152168023688887
284 4 0 20.28880436449244 29.437922148450696 26.120926667910023
285 4 0 20.28880436449244 31.92976644535209 26.120926667910023
286 4 0 21.017518680650454 30.683844296901395 24.08968531213116
287 4 0 22.446781852408833 30.683844296901395 26.130884661987803
288 4 0 23.175496168566845 29.437922148450696 24.09964330620894
289 4 0 23.175496168566845 31.92976644535209 24.09964330620894
290 4 0 10.956345557226506 15.732778515493035 22.00865398596341
291 4 0 11.685059873384517 14.486856367042337 19.977412630184546
292 4 0 11.685059873384517 16.978700663943734 19.977412630184546
293 4 0 12.413774189542531 15.732778515493035 17.946171274405682
294 4 0 13.84303736130091 15.732778515493035 19.987370624262326
295 4 0 14.571751677458924 14.486856367042337 17.95612926848346
296 4 0 14.571751677458924 16.978700663943734 17.95612926848346
297 4 0 15.300465993616939 15.732778515493035 15.924887912704596
298 4 0 16.729729165375318 15.732778515493035 17.96608726256124
299 4 0 17.458443481533333 14.486856367042337 15.934845906782373
300 4 0 17.458443481533333 16.978700663943734 15.934845906782373
301 4 0 9.498916924910475 18.224622812394426 26.071136697521137
302 4 0 10.22763124106849 16.978700663943727 24.039895341742273
303 4 0 10.22763124106849 19.470544960845125 24.039895341742273
304 4 0 10.956345557226506 18.224622812394426 22.008653985963406
305 4 0 12.385608728984884 18.224622812394426 24.04985333582005
306 4 0 13.114323045142896 16.978700663943727 22.018611980041186
307 4 0 13.114323045142896 19.470544960845125 22.018611980041186
308 4 0 13.843037361300908 18.224622812394426 19.987370624262322
309 4 0 15.272300533059289 18.224622812394426 22.028569974118966
310 4 0 16.001014849217302 16.978700663943727 19.9973286183401
311 4 0 16.001014849217302 19.470544960845125 19.9973286183401
312 4 0 16.729729165375318 18.224622812394426 17.966087262561235
313 4 0 18.158992337133697 18.224622812394426 20.00728661241788
314 4 0 18.88770665329171 16.978700663943727 17.97604525663901
315 4 0 18.88770665329171 19.470544960845125 17.97604525663901
316 4 0 8.041488292594448 20.71646710929582 30.133619409078868
317 4 0 8.770202608752463 19.470544960845125 28.1023780533
318 4 0 8.770202608752463 21.962389257746516 28.1023780533
319 4 0 9.498916924910475 20.71646710929582 26.071136697521137
320 4 0 10.928180096668857 20.71646710929582 28.11233604737778
321 4 0 11.656894412826869 19.470544960845125 26.081094691598913
322 4 0 11.656894412826869 21.962389257746516 26.081094691598913
323 4 0 12.385608728984884 20.71646710929582 24.04985333582005
324 4 0 13.814871900743263 20.71646710929582 26.091052685676694
325 4 0 14.543586216901277 19.470544960845125 24.059811329897826
326 4 0 14.543586216901277 21.962389257746516 24.059811329897826
327 4 0 15.272300533059289 20.71646710929582 22.028569974118966
328 4 0 16.70156370481767 20.71646710929582 24.069769323975606
329 4 0 17.43027802097568 19.470544960845125 22.038527968196743
330 4 0 17.43027802097568 21.962389257746516 22.038527968196743
331 4 0 18.158992337133697 20.71646710929582 20.00728661241788
332 4 0 19.588255508892075 20.71646710929582 22.04848596227452
333 4 0 20.31696982505009 19.470544960845125 20.017244606495655
334 4 0 20.31696982505009 21.962389257746516 20.017244606495655
335 4 0 6.584059660278424 23.208311406197215 34.196102120636596
336 4 0 7.312773976436436 21.962389257746516 32.16486076485773
337 4 0 7.312773976436436 24.45423355464791 32.16486076485773
338 4 0 8.041488292594448 23.208311406197215 30.133619409078868
339 4 0 9.470751464352826 23.208311406197215 32.17481875893551
340 4 0 10.199465780510842 21.962389257746516 30.143577403156645
341 4 0 10.199465780510842 24.45423355464791 30.143577403156645
342 4 0 10.928180096668857 23.208311406197215 28.11233604737778
343 4 0 12.357443268427236 23.208311406197215 30.15353539723442
344 4 0 13.086157584585248 21.962389257746516 28.122294041455557
345 4 0 13.086157584585248 24.45423355464791 28.122294041455557
346 4 0 13.814871900743263 23.208311406197215 26.091052685676694
347 4 0 15.244135072501642 23.208311406197215 28.132252035533334
348 4 0 15.972849388659657 21.962389257746516 26.10101067975447
349 4 0 15.972849388659657 24.45423355464791 26.10101067975447
350 4 0 16.70156370481767 23.208311406197215 24.069769323975606
351 4 0 18.130826876576048 23.208311406197215 26.11096867383225
352 4 0 18.859541192734063 21.962389257746516 24.079727318053386
353 4 0 18.859541192734063 24.45423355464791 24.079727318053386
354 4 0 19.588255508892075 23.208311406197215 22.04848596227452
355 4 0 21.017518680650454 23.208311406197215 24.089685312131163
356 4 0 21.74623299680847 21.962389257746516 22.0584439563523
357 4 0 21.74623299680847 24.45423355464791 22.0584439563523
358 4 0 6.58405966027842 25.700155703098606 34.19610212063659
359 4 0 8.013322832036803 25.700155703098606 36.237301470493236
360 4 0 8.742037148194814 24.45423355464791 34.20606011471437
361 4 0 8.742037148194814 26.946077851549305 34.20606011471437
362 4 0 9.470751464352826 25.700155703098606 32.17481875893551
363 4 0 10.900014636111205 25.700155703098606 34.21601810879215
364 4 0 11.628728952269217 24.45423355464791 32.18477675301328
365 4 0 11.62872895226922 26.946077851549305 32.18477675301328
366 4 0 12.357443268427234 25.700155703098606 30.153535397234418
367 4 0 13.786706440185613 25.700155703098606 32.19473474709106
368 4 0 14.515420756343627 24.45423355464791 30.163493391312194
369 4 0 14.515420756343627 26.946077851549305 30.163493391312198
370 4 0 15.244135072501642 25.700155703098606 28.13225203553333
371 4 0 16.67339824426002 25.700155703098606 30.173451385389974
372 4 0 17.402112560418033 24.45423355464791 28.142210029611107
373 4 0 17.402112560418033 26.946077851549305 28.14221002961111
374 4 0 18.130826876576045 25.700155703098606 26.110968673832247
375 4 0 19.560090048334423 25.700155703098606 28.152168023688887
376 4 0 20.28880436449244 24.45423355464791 26.120926667910023
377 4 0 20.288804364492442 26.946077851549305 26.120926667910027
378 4 0 21.017518680650454 25.700155703098606 24.08968531213116
379 4 0 22.446781852408833 25.700155703098606 26.130884661987803
380 4 0 23.175496168566845 24.45423355464791 24.09964330620894
381 4 0 23.17549616856685 26.946077851549305 24.09964330620894
382 4 0 8.013322832036803 28.192 36.237301470493236
383 4 0 9.442586003795181 28.192 38.278500820349876
384 4 0 10.171300319953193 26.946077851549305 36.24725946457101
385 4 0 10.171300319953193 29.437922148450696 36.24725946457101
386 4 0 10.900014636111205 28.192 34.21601810879215
387 4 0 12.329277807869586 28.192 36.25721745864879
388 4 0 13.0579921240276 26.946077851549305 34.22597610286992
389 4 0 13.0579921240276 29.437922148450696 34.22597610286992
390 4 0 13.786706440185613 28.192 32.19473474709106
391 4 0 15.215969611943994 28.192 34.2359340969477
392 4 0 15.944683928102005 26.946077851549305 32.20469274116884
393 4 0 15.944683928102005 29.437922148450696 32.20469274116884
394 4 0 16.67339824426002 28.192 30.173451385389974
395 4 0 18.1026614160184 28.192 32.214650735246614
396 4 0 18.831375732176415 26.946077851549305 30.18340937946775
397 4 0 18.831375732176415 29.437922148450696 30.18340937946775
398 4 0 19.560090048334423 28.192 28.152168023688887
399 4 0 20.989353220092806 28.192 30.19336737354553
400 4 0 21.71806753625082 26.946077851549305 28.162126017766667
401 4 0 21.71806753625082 29.437922148450696 28.162126017766667
402 4 0 22.446781852408833 28.192 26.130884661987803
403 4 0 23.87604502416721 28.192 28.172084011844444
404 4 0 24.604759340325227 26.946077851549305 26.14084265606558
405 4 0 24.604759340325227 29.437922148450696 26.14084265606558
406 4 0 15.328631454174587 33.17568859380278 9.821205851290223
407 4 0 15.328631454174587 35.66753289070418 9.821205851290223
408 4 0 16.75789462593297 35.66753289070418 11.862405201146867
409 4 0 17.48660894209098 34.42161074225348 9.831163845368003
410 4 0 17.48660894209098 36.913455039154876 9.831163845368003
411 4 0 19.644586430007376 35.66753289070418 9.84112183944578
412 4 0 16.757894625932966 38.15937718760557 11.862405201146863
413 4 0 18.187157797691345 38.15937718760557 13.903604551003507
414 4 0 18.91587211384936 36.91345503915487 11.872363195224644
415 4 0 18.91587211384936 39.40529933605627 11.872363195224644
416 4 0 19.644586430007372 38.15937718760557 9.841121839445776
417 4 0 21.07384960176575 38.15937718760557 11.88232118930242
418 4 0 21.80256391792377 36.91345503915487 9.851079833523556
419 4 0 21.80256391792377 39.40529933605627 9.851079833523556
420 4 0 23.96054140584016 38.15937718760557 9.861037827601333
421 4 0 18.187157797691345 40.65122148450696 13.903604551003507
422 4 0 19.616420969449727 40.65122148450696 15.94480390086015
423 4 0 20.34513528560774 39.40529933605627 13.913562545081286
424 4 0 20.34513528560774 41.897143632957665 13.913562545081286
425 4 0 21.07384960176575 40.65122148450696 11.88232118930242
426 4 0 22.503112773524133 40.65122148450696 13.923520539159062
427 4 0 23.23182708968215 39.40529933605627 11.8922791833802
428 4 0 23.23182708968215 41.897143632957665 11.8922791833802
429 4 0 23.96054140584016 40.65122148450696 9.861037827601333
430 4 0 25.38980457759854 40.65122148450696 11.902237177457977
431 4 0 26.118518893756555 39.40529933605627 9.870995821679113
432 4 0 26.118518893756555 41.897143632957665 9.870995821679113
433 4 0 28.27649638167295 40.65122148450696 9.88095381575689
434 4 0 15.328631454174587 28.192 9.821205851290223
435 4 0 15.328631454174587 30.68384429690139 9.821205851290223
436 4 0 16.757894625932966 30.68384429690139 11.862405201146863
437 4 0 17.48660894209098 29.437922148450696 9.831163845368
438 4 0 17.48660894209098 31.92976644535209 9.831163845368
439 4 0 19.644586430007372 30.68384429690139 9.841121839445776
440 4 0 16.757894625932966 33.17568859380279 11.862405201146863
441 4 0 18.187157797691345 33.17568859380279 13.903604551003507
442 4 0 18.91587211384936 31.92976644535209 11.872363195224644
443 4 0 18.91587211384936 34.421610742253485 11.872363195224644
444 4 0 19.644586430007372 33.17568859380279 9.841121839445776
445 4 0 21.07384960176575 33.17568859380279 11.88232118930242
446 4 0 21.80256391792377 31.92976644535209 9.851079833523556
447 4 0 21.80256391792377 34.421610742253485 9.851079833523556
448 4 0 23.96054140584016 33.17568859380279 9.861037827601333
449 4 0 18.18715779769134 35.66753289070418 13.903604551003504
450 4 0 19.616420969449724 35.66753289070418 15.944803900860146
451 4 0 20.34513528560774 34.421610742253485 13.913562545081282
452 4 0 20.34513528560774 36.913455039154876 13.913562545081282
453 4 0 21.07384960176575 35.66753289070418 11.882321189302417
454 4 0 22.50311277352413 35.66753289070418 13.923520539159059
455 4 0 23.231827089682145 34.421610742253485 11.892279183380197
456 4 0 23.231827089682145 36.913455039154876 11.892279183380197
457 4 0 23.96054140584016 35.66753289070418 9.86103782760133
458 4 0 25.38980457759854 35.66753289070418 11.902237177457973
459 4 0 26.118518893756555 34.421610742253485 9.87099582167911
460 4 0 26.118518893756555 36.913455039154876 9.87099582167911
461 4 0 28.27649638167295 35.66753289070418 9.880953815756886
462 4 0 19.616420969449724 38.15937718760557 15.944803900860146
463 4 0 21.045684141208103 38.15937718760557 17.98600325071679
464 4 0 21.774398457366118 36.913455039154876 15.954761894937924
465 4 0 21.774398457366118 39.405299336056274 15.954761894937924
466 4 0 22.50311277352413 38.15937718760557 13.923520539159059
467 4 0 23.932375945282512 38.15937718760557 15.964719889015702
468 4 0 24.661090261440524 36.913455039154876 13.933478533236837
469 4 0 24.661090261440524 39.405299336056274 13.933478533236837
470 4 0 25.38980457759854 38.15937718760557 11.902237177457973
471 4 0 26.81906774935692 38.15937718760557 13.943436527314617
472 4 0 27.547782065514934 36.913455039154876 11.91219517153575
473 4 0 27.547782065514934 39.405299336056274 11.91219517153575
474 4 0 28.27649638167295 38.15937718760557 9.880953815756886
475 4 0 29.705759553431328 38.15937718760557 11.92215316561353
476 4 0 30.43447386958934 36.913455039154876 9.890911809834662
477 4 0 30.43447386958934 39.405299336056274 9.890911809834662