ITEM: TIMESTEP
0
ITEM: NUMBER OF ATOMS
37374
ITEM: BOX BOUNDS pp pp pp
0.0 102.77994199999999
0.0 118.660062
0.0 130.7352
ITEM: ATOMS id type x y z vx vy vz q mask
1 3 102.124321 1.340531 19.436 -0.006 -0.001 -0.006 -0.996 0
2 3 3.194321 2.307531 19.117 0.003 0.003 0.001 -1.061 0
3 3 102.747321 0.23553099999999993 28.637 0.003 0.002 -0.004 -1.285 0
4 3 3.069321 2.174531 29.131 0.007 0.0 -0.005 -1.174 0
5 3 0.034321000000000046 0.011530999999999958 37.893 -0.004 -0.005 -0.001 -1.21 0
6 3 2.547321 2.6045309999999997 37.376 -0.006 0.002 -0.007 -1.05 0
7 3 102.590321 0.549531 46.669 -0.005 -0.002 -0.006 -1.211 0
8 3 3.057321 1.966531 47.447 0.005 0.006 -0.007 -1.099 0
9 3 1.341321 1.801531 21.838 -0.003 -0.003 -0.015 -1.108 0
10 3 3.949321 0.501531 21.81 0.007 -0.002 -0.004 -1.205 0
11 3 0.9153209999999999 2.4395309999999997 31.5 0.004 -0.006 0.003 -1.154 0
12 3 4.284321 0.09853099999999992 31.644 0.005 0.006 -0.002 -1.217 0
13 3 0.5253209999999999 1.702531 40.614 0.002 -0.001 0.002 -1.077 0
14 3 4.257321 0.10553099999999982 41.155 -0.004 -0.0 -0.006 -1.212 0
15 3 1.213321 2.073531 49.804 -0.001 0.003 0.004 -1.206 0
16 3 3.871321 118.44353100000001 50.941 -0.002 -0.001 -0.005 -1.119 0
17 3 0.776321 0.5765309999999999 24.556 -0.0 -0.008 -0.001 -1.043 0
18 3 5.509321 1.964531 25.925 0.004 -0.002 0.006 -1.106 0
19 3 2.261321 0.16353099999999987 35.567 0.003 0.004 -0.004 -1.037 0
20 3 4.994320999999999 2.537531 34.567 0.004 -0.001 0.003 -1.121 0
21 3 2.032321 0.14953099999999986 44.956 0.005 -0.007 -0.0 -1.035 0
22 3 5.169321 1.9925309999999998 43.715 0.003 -0.0 0.001 -1.169 0
23 3 0.3663209999999999 117.914531 22.34 0.001 -0.0 -0.003 -0.925 0
24 3 3.078321 2.127531 23.812 0.004 0.002 -0.001 -1.106 0
25 3 0.5883210000000001 2.1725309999999998 27.043 -0.002 0.001 0.005 -1.08 0
26 3 3.490321 118.644593 27.538 0.004 -0.004 -0.003 -1.136 0
27 3 0.359321 2.012531 36.046 -0.004 -0.001 -0.003 -1.073 0
28 3 4.427321 1.033531 36.712 0.001 -0.004 -0.004 -1.083 0
29 3 0.29932099999999995 118.542531 42.684 -0.006 -0.002 0.005 -1.128 0
30 3 2.6433210000000003 1.791531 42.643 0.002 0.003 0.0 -1.096 0
31 3 1.533321 2.712531 45.739 0.001 -0.001 -0.005 -1.09 0
32 3 4.426321 0.442531 45.721 0.001 0.0 0.007 -1.149 0
33 3 102.590321 0.37253099999999995 51.499 -0.005 0.003 0.001 -1.135 0
34 3 2.9333210000000003 2.0555309999999998 51.498 0.004 -0.002 -0.002 -1.034 0
35 3 0.29132099999999994 0.5425309999999999 33.386 -0.003 -0.003 0.006 -1.174 0
36 3 2.868321 1.975531 33.257 -0.0 0.005 0.002 -1.262 0
37 3 1.881321 0.22753099999999993 19.742 -0.004 0.002 0.003 -1.174 0
38 3 5.5133209999999995 1.818531 19.848 0.001 -0.002 -0.001 -1.045 0
39 3 2.029321 0.20253100000000002 30.321 -0.003 -0.005 0.0 -1.196 0
40 3 5.533321 2.013531 30.197 -0.006 0.004 0.001 -1.186 0
41 3 2.405321 0.7865309999999999 39.412 0.005 0.001 0.004 -1.041 0
42 3 4.631321 2.150531 39.617 0.006 -0.002 -0.003 -1.066 0
43 3 2.2243209999999998 118.410531 48.64 0.005 0.009 -0.002 -1.23 0
44 3 5.401320999999999 1.142531 49.072 -0.007 -0.002 -0.004 -1.134 0
45 1 102.54632099999999 0.279531 26.402 -0.001 0.0 -0.002 2.25 0
46 2 3.056321 2.113531 26.218 -0.0 -0.001 0.001 1.663 0
47 1 102.69832099999999 118.623593 35.505 -0.001 -0.001 -0.001 2.207 0
48 1 3.109321 2.0395309999999998 35.501 0.001 -0.001 -0.003 2.27 0
49 1 102.517321 118.602531 44.674 0.001 0.0 -0.005 2.347 0
50 1 3.132321 1.8835309999999998 44.72 0.0 -0.001 0.002 2.287 0
51 1 2.092321 0.289531 22.981 0.002 -0.001 0.003 2.197 0
52 1 5.1973210000000005 1.9235309999999999 22.861 -0.0 0.001 -0.004 2.236 0
53 1 2.148321 0.21253100000000003 32.381 0.002 -0.002 0.001 2.285 0
54 1 5.194321 2.013531 32.517 -0.001 -0.0 0.001 2.184 0
55 1 2.074321 0.2115309999999999 41.457 0.001 0.002 0.003 2.32 0
56 1 5.385320999999999 1.817531 41.564 0.0 -0.001 0.001 2.232 0
57 1 1.940321 0.3345309999999999 50.672 -0.001 0.001 0.0 2.212 0
58 1 5.054321 1.938531 51.025 -0.002 0.003 -0.004 2.161 0
59 1 1.1083210000000001 2.214531 19.775 0.001 0.002 0.004 2.211 0
60 1 4.018321 0.3085309999999999 19.738 0.0 0.001 -0.002 2.26 0
61 1 1.014321 2.0115309999999997 29.287 0.0 -0.0 -0.003 2.165 0
62 1 4.280321 0.23353099999999993 29.409 0.001 0.001 0.002 2.167 0
63 1 0.726321 1.953531 38.396 0.001 -0.005 -0.001 2.277 0
64 1 4.215320999999999 0.09953099999999981 38.597 -0.0 -0.0 -0.0 2.283 0
65 1 0.937321 2.044531 47.66 -0.0 -0.001 0.001 2.287 0
66 1 4.054321 0.09553099999999981 47.758 0.002 -0.001 0.002 2.15 0
67 3 0.08632100000000009 4.020531 19.084 -0.005 -0.004 -0.007 -1.091 0
68 3 3.421321 5.668531 19.058 0.001 0.0 0.004 -1.079 0
69 3 0.08232100000000009 3.933531 29.234 -0.003 -0.004 0.007 -1.117 0
70 3 2.952321 6.244531 28.4 -0.005 -0.003 0.001 -1.178 0
71 3 0.03632100000000005 3.869531 38.119 -0.0 0.004 0.002 -1.068 0
72 3 3.045321 6.1545309999999995 37.455 0.005 0.003 0.004 -1.171 0
73 3 102.53432099999999 3.932531 46.986 0.003 -0.003 0.002 -1.178 0
74 3 3.952321 5.610531 46.859 0.001 0.003 -0.002 -1.09 0
75 3 0.866321 5.431531 22.632 0.003 0.007 -0.001 -1.07 0
76 3 4.198321 3.5275309999999998 21.841 0.005 0.004 -0.003 -1.189 0
77 3 0.758321 6.398531 31.412 -0.004 -0.001 0.002 -1.115 0
78 3 4.222321 3.871531 31.936 -0.008 -0.002 0.002 -1.238 0
79 3 0.5253209999999999 5.293531 40.281 -0.005 -0.001 0.005 -1.016 0
80 3 4.722321 3.8545309999999997 41.639 -0.004 0.002 0.0 -1.043 0
81 3 0.739321 5.735531 49.907 0.001 0.001 -0.003 -1.183 0
82 3 4.216321 3.555531 49.858 -0.0 -0.001 0.001 -1.212 0
83 3 1.956321 4.3915310000000005 26.066 0.001 -0.005 0.001 -1.078 0
84 3 4.978320999999999 4.872531 25.152 0.008 -0.001 0.003 -1.082 0
85 3 2.060321 4.0665309999999995 34.954 0.001 0.001 0.005 -1.203 0
86 3 5.153321 6.254531 34.624 0.005 -0.003 0.003 -1.098 0
87 3 1.826321 4.694531 43.854 0.003 0.001 -0.001 -1.064 0
88 3 5.215320999999999 5.871531 44.124 0.001 0.001 -0.001 -1.115 0
89 3 0.573321 3.725531 24.003 -0.001 -0.005 0.001 -1.007 0
90 3 3.356321 5.605531 23.509 0.003 0.003 -0.0 -1.194 0
91 3 0.21232099999999998 5.9525310000000005 27.223 -0.002 0.001 -0.002 -1.051 0
92 3 4.434321000000001 4.357531 27.562 0.002 0.002 -0.0 -1.097 0
93 3 0.3343210000000001 5.679531 36.427 0.004 0.003 0.001 -1.187 0
94 3 4.689321 4.261531 36.339 0.002 0.004 -0.003 -1.136 0
95 3 102.255321 3.9915309999999997 42.403 0.002 -0.002 -0.005 -1.017 0
96 3 3.872321 6.740531 41.573 0.002 0.01 0.006 -0.946 0
97 3 1.521321 6.4975309999999995 46.043 0.006 0.008 0.001 -1.145 0
98 3 3.933321 3.7775309999999998 45.179 0.003 0.002 0.007 -1.088 0
99 3 102.687321 3.922531 51.477 0.006 0.008 -0.005 -1.096 0
100 3 3.255321 5.660531 51.347 0.003 -0.003 -0.001 -1.098 0
101 3 0.30332099999999995 4.270531 33.178 0.002 -0.002 -0.002 -1.155 0
102 3 2.905321 5.689531000000001 33.333 0.003 0.003 0.007 -1.181 0
103 3 1.960321 4.013531 20.727 -0.008 0.006 0.0 -1.076 0
104 3 5.058320999999999 5.762531 20.991 -0.002 0.002 -0.002 -1.16 0
105 3 2.4103209999999997 4.648531 30.352 0.005 0.007 0.009 -1.012 0
106 3 5.339321 5.572531 30.325 -0.004 -0.001 -0.001 -1.258 0
107 3 2.604321 4.448531 39.148 -0.005 -0.01 0.0 -0.982 0
108 3 5.130321 5.581531 39.257 -0.006 0.003 0.0 -1.205 0
109 3 2.145321 4.235531 48.231 0.002 0.005 0.003 -1.146 0
110 3 6.012321 5.151531 48.769 -0.004 -0.0 -0.004 -1.074 0
111 1 102.735321 4.101531 25.906 -0.0 0.002 -0.002 2.291 0
112 1 3.420321 5.772531 26.296 0.001 -0.0 0.001 2.307 0
113 1 102.77726299999999 3.9465310000000002 35.304 -0.003 -0.001 0.003 2.374 0
114 1 3.262321 5.675530999999999 35.412 -0.0 0.002 0.001 2.275 0
115 1 0.07432100000000008 3.868531 44.669 -0.001 -0.0 0.001 2.275 0
116 1 3.103321 5.886531 44.879 0.0 0.0 -0.001 2.305 0
117 1 2.296321 4.0055309999999995 22.775 0.002 0.001 0.001 2.303 0
118 1 5.481320999999999 5.529531 23.041 -0.003 0.003 -0.001 2.238 0
119 1 2.127321 3.8065309999999997 32.44 -0.002 -0.002 0.0 2.308 0
120 1 5.097321 5.794531 32.416 -0.002 -0.0 0.001 2.269 0
121 2 2.270321 3.951531 41.525 -0.001 -0.002 0.0 1.706 0
122 1 5.578321 5.706531 41.353 0.003 -0.003 0.002 2.291 0
123 1 1.936321 3.950531 50.573 0.002 -0.003 -0.003 2.082 0
124 1 5.349321 5.460531 50.775 0.003 -0.0 -0.001 2.165 0
125 1 1.243321 5.879531 19.517 0.0 -0.0 0.0 2.12 0
126 1 4.4633210000000005 3.940531 19.823 0.002 -0.001 -0.0 2.174 0
127 1 0.980321 5.886531 29.273 0.001 -0.001 0.001 2.185 0
128 1 4.2953209999999995 3.843531 29.583 0.001 0.003 0.0 2.169 0
129 1 1.020321 5.749530999999999 38.437 -0.001 -0.001 0.0 2.372 0
130 1 4.350321 3.839531 38.34 -0.001 -0.001 -0.001 2.278 0
131 1 0.815321 5.699531 47.783 0.001 0.001 -0.002 2.259 0
132 1 4.210321 3.828531 47.897 0.0 -0.001 0.002 2.279 0
133 3 5.678321 117.882531 19.235 0.003 0.003 -0.001 -0.84 0
134 3 9.828321 2.070531 19.444 0.003 -0.001 -0.004 -1.063 0
135 3 6.123321 0.26453099999999985 28.121 -0.002 -0.001 -0.012 -1.099 0
136 3 9.535321 1.4785309999999998 29.194 0.005 -0.001 -0.006 -1.005 0
137 3 6.292321 0.39853099999999997 38.325 0.002 -0.001 0.002 -1.202 0
138 3 9.314321 1.818531 37.464 -0.004 0.002 -0.003 -0.925 0
139 3 7.075321 0.03953099999999998 46.647 -0.002 -0.008 -0.002 -1.109 0
140 3 9.286321000000001 2.021531 47.08 -0.003 -0.005 0.001 -1.207 0
141 3 7.011321 1.259531 22.054 -0.001 -0.0 -0.002 -1.149 0
142 3 10.058321 0.4785309999999998 21.831 0.0 -0.002 -0.002 -1.155 0
143 3 7.153321 2.1645309999999998 32.692 0.008 -0.001 -0.001 -1.064 0
144 3 11.306321 0.503531 31.109 -0.003 -0.004 -0.003 -1.087 0
145 3 7.301321 2.349531 40.833 -0.001 0.004 0.002 -1.122 0
146 3 10.866321 118.261531 40.688 -0.006 0.003 0.002 -1.155 0
147 3 7.698321 1.781531 49.931 -0.004 0.004 -0.002 -1.031 0
148 3 11.421321 118.579531 50.037 -0.007 0.003 0.002 -1.121 0
149 3 8.246321 0.448531 25.018 -0.002 0.007 0.001 -1.241 0
150 3 11.845321 2.046531 25.374 0.002 0.001 0.004 -1.099 0
151 3 8.513321000000001 0.16653099999999998 34.814 -0.001 0.008 -0.001 -1.106 0
152 3 11.655321 2.169531 34.506 -0.002 -0.001 0.005 -1.184 0
153 3 8.851320999999999 0.303531 43.872 -0.006 0.004 0.002 -1.137 0
154 3 11.516321 1.7245309999999998 44.367 -0.003 0.004 0.001 -1.041 0
155 3 5.631321 0.15253099999999997 23.981 0.005 0.003 -0.001 -1.151 0
156 3 9.522321 1.938531 23.797 -0.005 0.007 0.001 -1.22 0
157 3 7.905321 2.016531 27.114 0.007 -0.004 0.002 -1.11 0
158 3 10.204321 0.20653100000000002 26.762 -0.003 -0.003 -0.002 -1.094 0
159 3 7.067321 2.071531 36.339 -0.004 -0.003 0.004 -1.141 0
160 3 10.748321 118.47353100000001 35.589 0.0 0.005 -0.002 -1.052 0
161 3 6.683321 0.20453100000000002 42.381 0.0 0.002 -0.006 -1.153 0
162 3 9.588321 2.084531 41.832 -0.002 -0.001 0.003 -1.007 0
163 3 7.415321 2.103531 44.988 0.001 0.004 0.001 -1.043 0
164 3 10.427321 0.020530999999999855 45.915 -0.005 -0.001 -0.001 -1.13 0
165 3 6.334321 0.1935309999999999 51.404 -0.001 -0.002 -0.008 -1.084 0
166 3 9.726321 1.404531 51.545 0.002 0.003 0.006 -1.114 0
167 3 5.823321 0.08753100000000003 33.86 -0.001 0.009 0.005 -1.139 0
168 3 9.840321 2.621531 33.051 0.003 0.0 -0.004 -1.078 0
169 3 8.337321 0.11153099999999982 19.404 0.004 0.004 0.005 -1.129 0
170 3 11.991321 2.066531 20.912 -0.001 0.004 0.005 -1.068 0
171 3 7.325321 0.0034690000000097143 30.027 0.002 0.0 0.006 -1.03 0
172 3 8.634321 0.37753099999999984 39.542 0.003 -0.003 0.005 -1.208 0
173 3 10.730321 2.033531 38.578 0.006 0.005 0.005 -0.89 0
174 3 8.711321 118.32753100000001 48.633 0.01 -0.003 0.001 -1.104 0
175 3 11.109321 2.3015309999999998 48.97 -0.004 0.002 0.003 -1.2 0
176 1 6.452321 0.13953099999999985 25.928 -0.0 -0.001 -0.001 2.24 0
177 1 9.603321000000001 1.964531 25.878 -0.0 0.002 0.002 2.338 0
178 1 6.399321 0.295531 35.836 0.001 0.0 0.0 2.26 0
179 1 9.790321 1.9035309999999999 35.352 0.001 -0.002 -0.001 2.18 0
180 1 6.286321 0.194531 44.62 -0.002 0.001 -0.002 2.29 0
181 1 9.499321 1.995531 44.983 0.004 -0.001 -0.001 2.29 0
182 1 8.416321 0.10153099999999982 23.085 -0.0 0.002 0.001 2.272 0
183 1 11.569321 1.9095309999999999 23.047 -0.001 -0.001 -0.002 2.179 0
184 2 8.380321 118.642531 32.3 0.001 0.003 0.001 1.69 0
185 1 11.840321 2.049531 32.455 0.0 -0.001 0.001 2.323 0
186 1 8.691321 0.09253099999999992 41.702 0.0 -0.0 0.001 2.285 0
187 2 12.030321 2.1325309999999997 41.956 0.002 0.001 0.001 1.681 0
188 1 8.373321 0.04246900000001119 50.841 0.001 0.001 -0.002 2.144 0
189 1 11.637321 1.9705309999999998 50.998 0.001 0.001 -0.0 2.193 0
190 1 7.618321 2.0075309999999997 20.016 -0.001 -0.001 -0.0 2.159 0
191 1 10.441321 118.627531 19.872 -0.001 0.003 0.004 2.206 0
192 1 7.364321 1.8575309999999998 29.081 -0.003 0.002 0.002 2.319 0
193 1 10.912321 118.60959299999999 28.994 0.001 -0.001 0.002 2.211 0
194 1 7.673321 2.073531 38.614 0.002 -0.0 0.001 2.326 0
195 1 10.765321 118.566531 38.667 -0.002 0.001 0.004 2.307 0
196 1 7.303321 1.892531 47.919 -0.0 -0.001 -0.0 2.203 0
197 1 10.627321 0.3455309999999998 48.02 -0.002 -0.004 0.002 2.245 0
198 3 6.608321 4.035531 19.356 -0.01 -0.012 -0.007 -1.076 0
199 3 9.667321000000001 5.591531 19.337 0.004 -0.0 -0.006 -1.146 0
200 3 6.727321 3.812531 28.45 -0.007 -0.002 0.003 -1.223 0
201 3 9.056321 5.342531 28.135 -0.0 0.001 0.004 -1.114 0
202 3 6.483321 3.800531 38.43 0.002 -0.002 0.005 -1.084 0
203 3 9.405321 5.525531 37.572 0.001 0.001 0.002 -1.194 0
204 3 5.929321 3.083531 46.866 -0.004 0.002 -0.0 -1.122 0
205 3 9.615321 5.746531 47.115 0.002 -0.002 0.004 -1.187 0
206 3 7.501321 5.892531 22.22 -0.003 -0.008 -0.005 -1.271 0
207 3 10.500321 3.8835309999999996 22.179 -0.005 0.004 -0.001 -1.207 0
208 3 8.392320999999999 5.4285309999999996 31.077 0.005 0.003 -0.001 -1.088 0
209 3 11.308321 3.8675309999999996 31.563 -0.005 0.005 0.004 -1.034 0
210 3 7.543321 5.876531 40.739 0.003 0.004 -0.002 -1.279 0
211 3 10.561321 4.583531 40.58 0.007 0.002 0.002 -1.048 0
212 3 7.582321 5.568531 51.08 -0.008 -0.001 0.011 -0.936 0
213 3 10.860321 3.839531 51.56 0.002 0.001 -0.003 -1.072 0
214 3 8.257321000000001 3.590531 25.19 0.002 0.004 -0.004 -1.138 0
215 3 11.649321 5.729531 25.381 -0.003 0.001 0.002 -1.132 0
216 3 8.636320999999999 3.640531 35.339 0.003 -0.004 0.001 -1.095 0
217 3 13.214321 3.949531 33.08 0.006 0.001 0.002 -1.2 0
218 3 9.331320999999999 3.8135310000000002 43.606 -0.003 0.0 -0.005 -1.049 0
219 3 11.999321 5.324531 43.718 -0.002 -0.006 0.004 -1.169 0
220 3 6.483321 3.465531 23.171 0.0 -0.006 -0.003 -1.178 0
221 3 9.469321 5.6095310000000005 23.85 0.0 0.004 0.002 -1.187 0
222 3 7.301321 5.760531 25.905 -0.004 0.0 -0.001 -1.125 0
223 3 10.545321 3.754531 26.508 -0.002 0.008 0.001 -1.203 0
224 3 6.889321 5.515530999999999 36.279 -0.005 -0.005 -0.008 -1.115 0
225 3 11.160321 4.119531 36.348 0.001 -0.002 0.002 -1.081 0
226 3 6.892321 4.464531 42.774 0.001 0.001 -0.003 -1.049 0
227 3 9.776321 6.152531 42.6 -0.003 0.001 0.004 -1.169 0
228 3 7.672321 4.9575309999999995 45.506 0.001 -0.003 0.001 -1.115 0
229 3 10.682321 3.7855309999999998 45.722 -0.001 -0.004 -0.002 -1.263 0
230 3 6.030321 3.578531 51.655 0.0 0.002 -0.0 -1.086 0
231 3 6.557321 4.493531 33.207 0.001 -0.001 0.005 -1.159 0
232 3 8.747321 5.590531 33.58 -0.007 -0.002 -0.0 -1.033 0
233 3 8.427321 3.646531 20.952 0.007 0.0 -0.003 -1.232 0
234 3 11.762321 5.977531 20.872 0.004 -0.003 0.005 -1.087 0
235 3 8.358321 3.034531 30.618 0.007 0.009 -0.005 -0.997 0
236 3 12.243321 5.971531 30.194 -0.003 0.004 -0.002 -1.043 0
237 3 8.764320999999999 3.857531 39.282 0.004 -0.001 -0.005 -1.057 0
238 3 12.019321 6.204531 38.515 -0.001 0.001 0.012 -1.161 0
239 3 8.331320999999999 3.900531 48.305 -0.0 -0.002 0.004 -1.026 0
240 3 10.787321 5.470530999999999 49.073 -0.005 -0.004 -0.003 -0.999 0
241 1 6.380321 3.792531 26.334 0.001 -0.0 0.001 2.237 0
242 1 9.513321000000001 5.519531 26.028 -0.0 0.001 0.001 2.238 0
243 1 6.532321 3.831531 35.3 -0.002 -0.001 0.0 2.338 0
244 1 9.722320999999999 5.7345310000000005 35.514 0.003 0.002 -0.004 2.3 0
245 1 6.046321 3.853531 44.656 0.0 0.0 0.002 2.258 0
246 1 9.582321 5.6415310000000005 44.676 0.002 0.001 -0.001 2.297 0
247 1 8.510321000000001 3.827531 23.096 0.001 -0.003 -0.001 2.271 0
248 1 11.638321 5.5615310000000004 22.992 0.001 0.001 -0.0 2.194 0
249 1 8.355321 3.871531 32.463 -0.0 -0.002 -0.001 2.36 0
250 1 12.055321 5.694531 32.194 -0.0 0.003 -0.0 2.313 0
251 1 8.618321 3.857531 41.622 -0.001 -0.003 0.0 2.272 0
252 1 11.777321 5.8915310000000005 41.81 0.001 0.001 0.002 2.303 0
253 2 8.438321 3.4925309999999996 51.608 0.002 0.001 -0.002 1.668 0
254 1 11.722320999999999 5.716531 51.11 -0.001 -0.001 0.001 2.183 0
255 1 7.677321 5.632531 20.123 0.001 -0.003 0.003 2.155 0
256 1 10.605321 3.817531 20.133 -0.002 -0.0 -0.002 2.229 0
257 1 7.400321 5.6465309999999995 29.328 -0.0 -0.001 -0.002 2.217 0
258 2 10.380321 3.690531 29.299 0.002 0.001 0.001 1.676 0
259 1 7.481321 5.722531 38.504 -0.003 -0.003 0.001 2.272 0
260 1 10.700321 4.139531 38.451 0.0 -0.0 -0.001 2.308 0
261 1 7.548321 5.675530999999999 47.511 -0.001 0.001 0.002 2.328 0
262 1 10.399321 3.852531 47.775 0.002 -0.0 0.002 2.303 0
263 3 12.537321 0.170531 19.265 0.003 -0.002 -0.002 -1.018 0
264 3 17.790321 2.401531 19.135 0.0 -0.005 -0.005 -1.139 0
265 3 12.485321 0.932531 28.009 -0.004 0.003 0.009 -1.12 0
266 3 16.204321 1.953531 28.536 0.004 -0.005 -0.003 -1.362 0
267 3 12.463321 0.22753099999999993 37.519 0.001 -0.004 0.003 -1.084 0
268 3 12.645321 0.9195309999999999 47.174 -0.001 -0.005 -0.001 -1.144 0
269 3 15.500321 2.5515309999999998 47.029 -0.001 0.001 -0.004 -1.12 0
270 3 14.498321 1.693531 21.909 -0.001 0.002 0.0 -1.137 0
271 3 16.903321 118.283531 22.118 0.002 0.002 0.009 -0.96 0
272 3 13.762321 2.385531 31.0 -0.001 -0.0 0.003 -1.086 0
273 3 16.954321 0.5105309999999998 31.094 0.002 -0.004 -0.004 -1.102 0
274 3 14.474321 2.099531 41.314 0.005 -0.003 0.005 -1.049 0
275 3 17.549321 0.16953099999999988 40.669 -0.007 0.003 -0.004 -1.174 0
276 3 13.479321 2.973531 50.418 0.002 -0.007 -0.002 -1.194 0
277 3 16.358321 1.5025309999999998 50.604 0.005 0.006 -0.001 -0.965 0
278 3 14.765321 0.515531 24.924 -0.005 0.015 -0.002 -1.143 0
279 3 18.455320999999998 2.012531 25.962 -0.006 0.007 -0.001 -1.099 0
280 3 13.515321 1.011531 32.922 0.003 0.004 -0.005 -0.912 0
281 3 18.157321000000003 2.449531 34.474 -0.008 -0.001 0.004 -1.08 0
282 3 14.840321 118.595593 44.667 -0.001 -0.005 0.001 -1.08 0
283 3 18.782321000000003 2.149531 43.521 0.002 -0.006 0.003 -1.147 0
284 3 12.502321 0.178531 23.821 -0.005 -0.004 0.005 -1.174 0
285 3 16.633321000000002 2.223531 24.082 0.003 0.0 -0.011 -1.112 0
286 3 14.261321 2.3825309999999997 26.611 -0.001 0.001 -0.002 -1.123 0
287 3 16.827320999999998 0.008530999999999844 26.805 0.007 -0.002 0.0 -1.219 0
288 3 13.738321 2.076531 35.83 -0.003 0.0 -0.001 -1.136 0
289 3 15.263321 0.06253099999999989 35.193 -0.003 0.001 -0.002 -1.032 0
290 3 13.275321 118.61653100000001 41.878 0.005 0.001 -0.006 -1.04 0
291 3 16.503321 1.358531 42.725 -0.003 0.0 0.001 -1.162 0
292 3 13.688321 2.222531 44.798 0.007 0.001 0.001 -1.134 0
293 3 17.113321 0.5665309999999999 45.304 -0.001 0.001 0.005 -1.077 0
294 3 12.774321 0.46653100000000003 51.938 0.006 0.001 0.005 -1.141 0
295 3 15.385321 2.166531 52.117 0.004 0.004 -0.005 -0.887 0
296 3 12.352321 118.303531 33.552 0.005 0.001 0.001 -0.938 0
297 3 15.948321 1.7445309999999998 32.958 0.001 0.011 0.004 -1.141 0
298 3 15.041321 0.4555309999999999 19.38 -0.004 -0.004 -0.001 -1.19 0
299 3 17.771321 1.1815309999999999 21.423 -0.007 0.01 -0.002 -0.952 0
300 3 14.365321 0.13753099999999985 29.903 -0.004 0.006 0.005 -1.05 0
301 3 18.676321 2.496531 29.909 -0.001 0.003 0.005 -1.109 0
302 3 15.561321 0.436531 39.458 -0.005 -0.001 -0.003 -1.131 0
303 3 18.094321 2.349531 39.343 -0.005 0.004 -0.004 -1.102 0
304 3 14.287321 0.6065309999999999 49.276 -0.003 0.004 -0.001 -1.149 0
305 3 17.901321000000003 2.3945309999999997 48.582 -0.003 -0.003 0.001 -1.139 0
306 1 12.968321 0.22553099999999993 25.998 0.001 0.001 0.0 2.235 0
307 1 16.236321 1.839531 26.146 0.001 -0.0 -0.0 2.237 0
308 1 12.932321 0.16153099999999987 35.449 0.002 -0.001 -0.0 2.293 0
309 1 16.110321 2.056531 35.071 0.001 -0.0 0.0 2.252 0
310 1 12.796321 0.2095309999999999 45.223 -0.001 -0.003 -0.001 2.265 0
311 1 15.863321 2.0885309999999997 44.709 0.001 -0.003 0.0 2.29 0
312 1 15.069321 0.05346900000000687 22.911 0.003 0.003 -0.002 2.205 0
313 1 18.420321 2.1365309999999997 23.053 0.001 -0.001 0.002 2.248 0
314 1 15.158321 0.04853099999999988 32.046 -0.002 -0.005 -0.002 2.322 0
315 1 18.302321 2.041531 32.203 0.001 0.002 -0.001 2.215 0
316 1 15.305321 0.22653099999999982 41.448 0.002 0.001 0.003 2.281 0
317 1 18.098321 2.017531 41.537 0.001 0.0 -0.0 2.359 0
318 1 14.818321 0.40253099999999997 51.236 -0.001 -0.002 0.001 2.302 0
319 1 18.264321000000002 2.214531 50.574 0.004 0.001 -0.003 2.233 0
320 1 13.752321 1.987531 19.922 0.003 -0.0 0.002 2.164 0
321 1 17.064321 0.458531 19.618 -0.003 0.002 -0.001 2.199 0
322 1 14.195321 2.154531 28.994 -0.0 -0.002 0.002 2.217 0
323 1 17.213321 0.12753099999999984 28.92 0.001 -0.001 -0.002 2.241 0
324 2 13.900321 2.0035309999999997 38.374 -0.0 0.001 0.002 1.662 0
325 1 17.246321000000002 118.537531 38.457 0.001 0.002 0.0 2.279 0
326 1 13.876321 2.343531 48.339 0.0 0.003 0.001 2.128 0
327 2 17.322321000000002 0.03653099999999987 47.773 -0.001 -0.002 0.001 1.658 0
328 3 12.549321 3.935531 19.387 0.0 0.004 -0.003 -1.079 0
329 3 15.921321 6.203531 19.412 0.002 0.007 -0.002 -1.079 0
330 3 13.168321 3.921531 28.384 0.002 -0.001 -0.001 -1.171 0
331 3 15.998321 6.2235309999999995 28.2 -0.005 -0.004 0.003 -1.195 0
332 3 12.803321 3.956531 38.858 -0.002 -0.002 0.001 -1.012 0
333 3 16.298321 6.010531 37.666 -0.005 0.01 -0.005 -1.187 0
334 3 12.739321 4.003531 47.227 -0.004 -0.001 0.004 -1.204 0
335 3 15.990321 5.830531000000001 46.758 0.002 -0.003 0.001 -1.322 0
336 3 14.345321 5.632531 21.661 0.006 -0.002 -0.0 -1.011 0
337 3 17.827320999999998 4.002530999999999 21.852 -0.001 0.006 0.003 -1.142 0
338 3 14.127321 7.605531 30.061 -0.002 -0.0 0.002 -1.086 0
339 3 16.988321 3.747531 32.156 0.002 -0.003 0.003 -1.121 0
340 3 14.276321 6.068531 40.695 -0.002 0.0 -0.0 -1.161 0
341 3 17.351321 3.868531 41.235 0.0 0.001 -0.002 -1.185 0
342 3 13.047321 6.034531 49.41 0.003 0.008 0.006 -1.042 0
343 3 17.319321000000002 3.998531 51.079 0.002 -0.003 0.005 -1.073 0
344 3 18.484321 5.775531 25.54 0.001 -0.004 -0.004 -1.14 0
345 3 15.120321 3.9915309999999997 34.53 -0.001 -0.003 0.006 -1.077 0
346 3 18.122321 5.676531 35.284 -0.004 0.003 0.001 -1.088 0
347 3 15.697321 3.9385310000000002 43.732 0.002 -0.002 -0.001 -1.126 0
348 3 18.146321 5.752530999999999 44.72 -0.009 0.001 -0.006 -1.156 0
349 3 12.527321 3.728531 23.457 -0.006 -0.002 0.003 -1.095 0
350 3 16.328321000000003 5.865531 23.793 -0.002 -0.001 -0.001 -1.098 0
351 3 14.281321 5.308531 25.861 -0.004 -0.001 -0.001 -1.096 0
352 3 16.877321000000002 3.871531 26.595 -0.0 -0.0 0.003 -1.137 0
353 3 14.105321 5.206531 36.529 -0.002 -0.002 0.006 -1.112 0
354 3 16.397320999999998 3.5245309999999996 36.515 -0.006 0.002 0.002 -1.092 0
355 3 13.155321 4.326531 41.892 0.002 -0.002 -0.001 -1.014 0
356 3 16.389321000000002 5.815531 42.354 0.002 0.001 0.001 -1.14 0
357 3 13.994321 5.361530999999999 45.425 0.001 0.001 -0.001 -1.213 0
358 3 17.360321 3.342531 45.573 0.002 0.008 -0.004 -1.192 0
359 3 13.738321 5.354531 51.728 -0.002 0.005 0.0 -1.093 0
360 3 16.129320999999997 6.074531 50.963 0.002 0.001 -0.004 -1.034 0
361 3 14.403321 5.637531 31.632 0.004 -0.002 -0.005 -1.09 0
362 3 16.312321 6.009531 33.392 -0.002 -0.007 -0.004 -1.123 0
363 3 15.037321 3.7215309999999997 19.639 0.001 0.0 0.001 -1.149 0
364 3 18.493321 5.605531 19.488 0.001 0.002 0.002 -1.144 0
365 3 15.290321 4.094531 29.788 0.001 0.002 -0.003 -1.172 0
366 3 17.709321 5.4525310000000005 30.169 0.003 -0.005 0.001 -1.021 0
367 3 15.461321 4.133531 39.412 0.001 -0.0 -0.0 -1.136 0
368 3 18.144320999999998 5.8965309999999995 39.189 0.002 0.007 0.003 -1.149 0
369 3 15.301321 4.193531 48.927 -0.003 0.0 0.0 -1.145 0
370 3 18.104321 5.4845310000000005 48.52 -0.0 -0.002 0.005 -1.21 0
371 1 12.732321 3.960531 26.266 -0.0 -0.001 0.002 2.158 0
372 1 16.275320999999998 5.876531 26.102 0.001 0.001 0.002 2.154 0
373 1 12.949321 3.866531 35.123 0.001 0.001 0.0 2.253 0
374 1 15.995321 5.715531 35.492 -0.001 0.0 0.001 2.263 0
375 1 12.590321 3.943531 45.069 -0.0 0.001 0.0 2.268 0
376 1 16.029321 5.741531 44.662 0.001 0.001 0.002 2.278 0
377 2 14.964321 3.770531 23.125 -0.002 0.002 -0.004 1.631 0
378 1 18.430321 5.663531 23.167 -0.0 0.001 0.001 2.185 0
379 1 14.970321 3.685531 32.115 -0.0 0.0 -0.001 2.324 0
380 1 18.105320999999996 5.632531 32.353 0.0 -0.001 0.002 2.323 0
381 1 15.204321 4.110531 41.502 0.001 0.0 0.001 2.252 0
382 1 18.235321 5.840531 41.288 -0.001 -0.001 -0.001 2.273 0
383 1 15.110321 3.992531 51.145 -0.004 -0.002 -0.002 2.238 0
384 1 18.272320999999998 5.794531 50.52 -0.002 -0.003 -0.004 2.344 0
385 1 13.797321 5.701531 19.676 0.003 0.001 -0.0 2.163 0
386 1 17.074320999999998 4.183531 19.822 0.0 -0.002 0.001 2.056 0
387 1 14.100321 5.695531 29.234 0.002 0.0 0.002 2.351 0
388 1 17.274321 3.724531 28.904 -0.001 0.002 0.001 2.166 0
389 1 13.984321 5.735531 38.641 0.0 -0.001 -0.001 2.263 0
390 1 17.266320999999998 4.139531 38.273 0.002 -0.0 -0.002 2.228 0
391 1 14.144321 5.6465309999999995 47.677 -0.001 -0.0 0.002 2.253 0
392 1 17.101321 3.860531 47.518 -0.002 0.002 -0.001 2.219 0
393 3 19.033321 118.59853100000001 19.088 -0.0 -0.001 0.006 -1.053 0
394 3 22.553320999999997 2.318531 19.102 0.007 0.004 0.001 -0.997 0
395 3 19.145321000000003 0.547531 28.155 0.002 0.002 -0.0 -1.069 0
396 3 22.749321000000002 2.032531 29.041 0.003 0.004 0.001 -1.112 0
397 3 17.168321 0.8445309999999999 36.601 -0.003 0.004 0.0 -1.086 0
398 3 22.124321000000002 2.610531 37.35 0.006 0.001 -0.003 -1.062 0
399 3 19.699320999999998 0.22453099999999981 47.57 -0.002 -0.003 -0.0 -0.963 0
400 3 22.653321 2.105531 46.758 0.004 -0.001 0.007 -1.298 0
401 3 20.404321000000003 2.071531 22.729 0.002 0.0 -0.007 -1.189 0
402 3 23.568320999999997 0.07153100000000001 22.055 0.004 -0.006 -0.0 -1.165 0
403 3 20.318320999999997 1.9235309999999999 31.938 0.001 0.001 0.005 -1.228 0
404 3 23.393321 0.337531 31.117 0.001 -0.008 -0.005 -1.18 0
405 3 20.102321000000003 2.217531 41.224 -0.001 0.007 0.009 -1.157 0
406 3 23.294320999999997 0.24653099999999983 41.347 0.004 0.001 -0.011 -1.146 0
407 3 20.249321000000002 1.817531 49.71 -0.002 0.004 -0.001 -1.125 0
408 3 23.490321 0.007469000000000392 50.899 -0.0 -0.001 -0.002 -1.055 0
409 3 21.436321 0.25953099999999996 26.033 -0.003 0.001 0.002 -1.198 0
410 3 24.769320999999998 2.292531 25.274 0.001 0.002 0.0 -1.148 0
411 3 20.807321 0.5565309999999999 34.288 -0.0 0.003 -0.0 -1.065 0
412 3 24.348321 2.222531 35.262 0.005 -0.003 -0.006 -1.064 0
413 3 21.538321000000003 0.003530999999999951 43.514 -0.001 0.004 -0.001 -1.169 0
414 3 24.372321 2.084531 44.372 -0.002 0.001 0.004 -1.113 0
415 3 19.453321000000003 0.2055309999999999 23.94 0.007 -0.003 -0.001 -1.15 0
416 3 22.764321000000002 1.773531 23.87 0.002 0.001 0.001 -1.114 0
417 3 20.788321000000003 2.719531 27.261 -0.001 0.007 -0.006 -1.226 0
418 3 23.863321 0.527531 26.965 -0.006 0.004 0.004 -1.187 0
419 3 20.028321 2.093531 36.287 -0.0 -0.001 -0.0 -1.188 0
420 3 22.668321 0.053530999999999995 36.571 0.001 -0.001 0.002 -1.125 0
421 3 19.241321 118.462531 42.337 0.004 0.002 0.003 -1.137 0
422 3 22.570321 2.712531 42.399 -0.002 -0.003 0.003 -1.182 0
423 3 20.283321 1.453531 45.541 0.0 0.008 0.002 -1.117 0
424 3 23.642321000000003 118.62853100000001 45.255 -0.003 0.001 -0.0 -1.2 0
425 3 18.981321 0.27353099999999997 51.091 -0.009 -0.001 -0.002 -1.089 0
426 3 22.506321 2.210531 51.274 -0.001 0.002 0.004 -1.147 0
427 3 18.446320999999998 0.04653099999999988 33.371 -0.003 -0.001 0.005 -1.063 0
428 3 22.544320999999997 1.960531 33.151 -0.004 -0.002 -0.009 -1.158 0
429 3 21.127321000000002 0.327531 20.74 -0.005 -0.001 -0.001 -1.06 0
430 3 23.428320999999997 2.577531 21.581 -0.001 -0.002 0.005 -1.005 0
431 3 21.146321 0.15553099999999986 30.086 0.0 -0.003 0.004 -1.214 0
432 3 24.710321 2.651531 30.15 0.006 -0.006 0.002 -1.132 0
433 3 21.347321 0.928531 39.527 0.002 -0.005 -0.004 -1.129 0
434 3 23.755321000000002 2.201531 39.425 0.002 0.001 -0.004 -1.144 0
435 3 21.969321 0.04953099999999999 48.585 0.004 -0.001 -0.003 -1.137 0
436 3 24.404321000000003 1.9865309999999998 48.618 0.003 0.0 -0.002 -1.119 0
437 1 19.330320999999998 118.655593 26.022 -0.004 -0.001 0.0 2.238 0
438 1 22.529321000000003 2.056531 26.11 -0.001 0.0 -0.0 2.265 0
439 1 19.037321 0.23153099999999993 35.426 -0.0 -0.0 0.003 2.245 0
440 1 22.206321000000003 1.997531 35.317 -0.0 -0.0 -0.001 2.165 0
441 1 19.046321 0.1975309999999999 44.385 -0.001 -0.002 0.0 2.262 0
442 1 22.293321 1.928531 44.477 -0.001 0.003 -0.002 2.16 0
443 1 21.401321000000003 0.3455309999999998 22.885 -0.0 0.001 0.002 2.252 0
444 1 24.697321000000002 1.9335309999999999 23.159 0.002 0.001 -0.0 2.266 0
445 1 21.387321 0.182531 32.134 -0.001 0.003 -0.001 2.352 0
446 1 24.333320999999998 2.046531 32.171 0.0 0.001 0.001 2.245 0
447 1 21.187320999999997 0.3485309999999999 41.431 0.003 0.001 -0.0 2.281 0
448 1 24.415321 2.111531 41.429 0.0 0.0 0.001 2.253 0
449 1 21.283321 0.311531 50.632 -0.001 -0.0 0.003 2.196 0
450 1 24.542321 1.979531 50.786 -0.0 0.002 0.002 2.196 0
451 2 20.178320999999997 2.056531 19.185 -0.001 0.0 0.002 1.651 0
452 1 23.654321000000003 0.696531 20.057 0.0 -0.002 0.002 2.117 0
453 1 20.625321 1.969531 29.181 0.002 0.003 0.002 2.242 0
454 1 23.788321000000003 0.08353100000000002 29.008 -0.001 0.003 0.001 2.252 0
455 1 20.080320999999998 2.127531 38.386 0.003 -0.002 0.0 2.356 0
456 1 23.258321000000002 0.3265309999999999 38.634 0.001 -0.002 -0.001 2.271 0
457 1 20.612321 2.1805309999999998 47.513 0.001 0.001 0.003 2.25 0
458 1 23.593321000000003 0.21453100000000003 47.409 -0.002 -0.002 -0.001 2.243 0
459 3 22.396321 6.230531 19.569 0.0 0.003 0.002 -1.07 0
460 3 19.048321 4.671531 28.177 -0.003 -0.002 0.002 -1.163 0
461 3 22.492320999999997 5.9575309999999995 28.802 0.003 0.005 -0.007 -1.179 0
462 3 19.147320999999998 4.206531 37.53 -0.008 -0.007 -0.004 -1.257 0
463 3 22.473321 5.752530999999999 38.042 -0.002 -0.003 0.001 -1.188 0