ITEM: TIMESTEP
45000
ITEM: NUMBER OF ATOMS
32000
ITEM: BOX BOUNDS pp pp pp
-5.653261 76.133261
-3.801793 74.281793
-5.907457 76.387457
ITEM: ATOMS id type x y z vx vy vz q
531 4 4.199 11.217 5.805 0.010 0.001 0.004 -0.000
2528 4 2.909 3.637 13.076 -0.004 0.003 0.002 -0.000
1282 4 6.714 6.948 12.085 0.002 0.005 -0.010 -0.000
19490 4 2.300 7.501 13.317 0.003 0.001 0.001 -0.000
19217 4 4.727 1.519 6.600 -0.003 -0.012 0.003 0.000
23469 4 1.507 6.591 0.807 -0.008 0.005 -0.005 -0.000
490 4 -2.805 6.282 4.421 0.005 -0.001 -0.011 0.000
19282 4 4.996 13.679 0.852 0.007 0.000 -0.012 -0.000
2126 4 -0.514 13.591 10.730 -0.009 0.003 -0.001 -0.000
404 4 0.641 2.438 6.157 0.007 0.003 0.004 -0.000
3307 4 -0.177 -0.586 9.370 -0.010 0.007 0.001 -0.000
18442 4 5.561 2.351 -0.847 -0.006 -0.005 -0.001 0.000
2007 4 3.901 5.050 15.332 0.003 0.003 0.005 0.000
648 4 10.057 10.500 10.252 0.001 -0.000 -0.004 -0.000
10684 4 0.165 -1.868 4.818 -0.002 0.001 -0.004 -0.000
202 4 10.064 4.360 0.736 -0.003 -0.005 0.006 0.000
844 4 12.171 11.159 3.941 -0.013 0.009 -0.007 -0.000
4074 4 8.354 9.814 12.354 0.008 -0.006 -0.005 -0.000
3365 4 0.365 5.774 12.871 -0.011 -0.002 0.006 -0.000
13152 4 -2.153 7.956 5.884 -0.014 0.009 -0.002 0.000
13597 4 11.886 7.747 7.045 -0.006 -0.000 -0.000 -0.000
7718 4 10.922 4.278 10.634 0.001 0.000 -0.011 0.000
8731 4 11.774 1.044 9.776 -0.007 -0.009 0.005 -0.000
18934 4 3.829 5.574 -2.949 0.006 0.005 -0.006 -0.000
6029 4 6.831 6.200 9.607 0.003 -0.002 -0.011 -0.000
12360 4 -1.041 4.475 -4.201 0.004 -0.009 0.002 0.000
18852 4 8.413 5.711 1.983 -0.006 -0.006 0.003 0.000
894 4 5.058 5.764 5.593 -0.006 0.007 -0.005 0.000
2981 4 -2.933 8.740 10.485 0.006 0.000 -0.005 0.000
614 4 3.331 7.083 4.429 0.006 -0.002 0.004 -0.000
10296 4 6.922 12.356 11.953 0.002 -0.003 0.002 0.000
4480 4 4.377 8.336 11.576 0.009 -0.002 0.010 -0.000
19782 4 5.015 8.569 2.925 -0.003 0.007 -0.005 -0.000
23396 4 3.690 10.065 14.292 -0.009 -0.005 -0.012 0.000
201 4 6.793 3.837 0.460 -0.004 -0.001 0.004 0.000
1777 4 13.517 8.499 9.347 -0.003 -0.005 -0.003 -0.000
217 4 6.139 8.387 9.860 0.007 0.004 -0.005 -0.000
27169 4 1.082 4.417 -2.773 0.006 0.003 0.010 -0.000
173 4 7.761 3.562 3.020 0.006 -0.004 0.004 0.000
539 4 10.085 9.503 6.575 -0.012 0.001 0.005 -0.000
855 4 11.541 9.620 8.641 -0.004 -0.010 0.001 0.000
5473 4 -4.288 8.270 4.232 -0.002 -0.001 -0.005 0.000
3830 4 9.565 6.796 7.447 -0.003 -0.004 0.002 -0.000
2647 4 6.144 7.523 0.546 0.004 0.015 -0.000 -0.000
1364 4 8.553 4.503 9.223 0.003 0.001 0.007 -0.000
8326 4 7.505 3.305 11.266 -0.005 -0.003 -0.002 0.000
424 4 7.761 -3.133 5.271 -0.008 -0.010 -0.010 0.000
27579 4 3.643 3.523 6.572 -0.001 0.005 0.004 0.000
16513 4 8.024 9.208 8.786 0.003 -0.002 -0.004 0.000
19376 4 2.526 5.012 -0.532 0.001 0.003 0.001 -0.000
3435 4 -3.934 6.722 6.453 -0.008 -0.005 0.002 -0.000
2422 4 10.500 8.980 12.790 0.002 -0.009 -0.004 -0.000
13116 4 5.157 12.402 18.852 -0.014 -0.013 0.003 0.000
9886 4 1.924 11.816 14.010 -0.005 0.008 0.010 0.000
4313 4 2.988 8.595 1.219 -0.001 -0.004 -0.002 -0.000
7019 4 4.674 12.413 16.173 0.001 -0.001 -0.005 -0.000
1443 4 0.839 7.621 7.860 0.010 -0.001 -0.002 0.000
16555 4 11.501 6.344 8.897 0.003 0.008 -0.009 -0.000
5068 4 9.200 13.555 18.098 -0.003 -0.002 -0.001 0.000
6550 4 9.835 -0.150 2.882 0.004 -0.011 -0.002 -0.000
6154 4 3.270 6.490 7.126 0.000 0.006 0.001 -0.000
6673 4 3.835 9.997 9.657 0.008 -0.004 0.002 0.000
178 4 5.434 4.629 8.026 -0.008 0.004 -0.003 0.000
1216 4 5.714 1.747 1.584 0.002 -0.011 0.006 0.000
5267 4 1.304 6.004 15.665 0.014 0.001 0.001 -0.000
27566 4 -0.209 9.714 4.788 -0.003 0.010 -0.007 0.000
18496 4 0.512 6.085 3.237 0.001 0.005 0.000 0.000
447 4 4.390 -2.264 -0.771 -0.002 0.006 -0.002 0.000
15594 4 -1.601 3.968 12.971 0.008 -0.005 0.007 -0.000
19223 4 2.227 9.712 7.042 0.009 0.008 0.005 0.000
1206 4 13.551 5.847 15.092 -0.002 0.002 0.002 0.000
3246 4 5.709 10.093 7.931 0.001 0.004 0.005 0.000
8682 4 7.776 12.226 9.038 0.005 0.007 0.006 -0.000
9164 4 9.681 6.075 -3.059 0.004 -0.006 0.003 -0.000
7471 4 2.821 10.575 16.462 -0.002 0.005 -0.010 0.000
16043 4 6.268 -2.128 10.302 -0.000 -0.010 -0.011 -0.000
19309 4 1.660 -0.187 0.292 -0.006 0.017 0.002 -0.000
1643 4 1.726 -1.233 8.660 0.006 -0.014 0.002 0.000
6911 4 8.781 7.432 19.715 -0.001 -0.011 0.001 0.000
1098 4 -4.857 -0.217 4.133 -0.003 -0.002 -0.002 -0.000
5674 4 2.553 7.950 18.460 0.002 0.007 0.007 0.000
2221 4 -2.639 0.807 10.912 0.001 0.004 0.003 -0.000
19645 4 8.809 3.965 5.577 0.010 0.000 -0.005 -0.000
487 4 3.940 12.696 3.670 -0.001 0.000 0.007 0.000
19699 4 12.517 6.224 3.595 -0.001 -0.001 -0.005 -0.000
18845 4 1.894 8.168 16.105 -0.004 -0.006 0.002 -0.000
6987 4 7.151 4.255 20.598 0.004 0.001 0.008 -0.000
10698 4 7.710 -3.073 20.719 0.006 0.004 -0.002 -0.000
19244 4 8.117 1.502 1.146 0.006 0.001 0.011 0.000
1404 4 9.573 14.450 8.766 -0.005 0.007 -0.000 0.000
18861 4 8.517 2.640 -0.969 -0.003 0.010 -0.005 0.000
6470 4 11.809 2.019 15.315 -0.003 0.005 0.001 -0.000
23478 4 8.284 9.503 15.777 -0.000 -0.002 0.011 0.000
19656 4 10.567 8.817 -2.617 -0.003 0.002 0.005 0.000
1276 4 6.533 9.411 -1.297 -0.008 -0.008 0.005 -0.000
1251 4 7.310 4.916 12.934 0.009 -0.002 -0.007 0.000
2857 4 2.251 9.928 12.019 -0.007 -0.003 -0.006 0.000
2516 4 9.885 12.215 11.896 0.008 -0.001 -0.015 0.000
11147 4 5.628 -0.221 13.167 -0.013 0.001 0.006 0.000
5387 4 2.666 3.782 18.199 -0.003 -0.012 0.002 -0.000
19806 4 8.281 7.800 -0.626 0.003 -0.008 -0.003 -0.000
2118 4 7.554 1.684 13.292 0.021 -0.006 -0.001 0.000
2729 4 4.135 12.014 12.607 0.009 -0.016 -0.004 0.000
11066 4 10.722 -1.528 9.998 0.013 -0.010 -0.001 -0.000
3085 4 7.883 6.148 4.423 0.008 0.012 -0.000 0.000
7474 4 -0.894 4.377 2.719 -0.010 0.005 0.004 0.000
1293 4 1.152 11.596 5.032 -0.005 -0.005 -0.002 -0.000
150 4 7.418 0.608 3.491 -0.012 0.010 0.001 0.000
6239 4 13.665 10.054 14.356 -0.001 0.002 -0.006 0.000
10322 4 3.990 -1.828 11.675 -0.003 0.005 -0.007 0.000
13513 4 0.424 2.678 12.090 0.010 0.007 0.003 -0.000
10282 4 10.248 4.893 3.981 0.002 -0.008 -0.001 0.000
9970 4 0.093 4.959 18.145 -0.006 0.002 -0.002 0.000
8364 4 9.002 -0.372 -4.221 0.015 0.005 0.013 0.000
2668 4 9.004 13.702 3.192 0.000 -0.006 0.004 -0.000
7787 4 -1.242 5.124 6.499 -0.002 0.002 0.000 -0.000
14345 4 6.439 1.116 10.937 0.002 0.004 0.005 0.000
6833 4 6.153 6.442 19.408 0.003 -0.007 0.004 0.000
4073 4 0.148 4.419 0.418 0.005 0.002 -0.001 0.000
899 4 9.917 2.611 12.183 0.001 -0.009 0.008 0.000
18858 4 9.423 9.147 1.240 -0.005 -0.004 0.002 -0.000
4640 4 0.281 9.437 1.737 -0.003 0.002 -0.003 0.000
27962 4 7.541 8.039 2.643 0.003 0.011 -0.000 0.000
815 4 4.790 5.268 17.319 -0.008 -0.005 0.007 -0.000
2531 4 2.365 9.405 4.488 -0.002 0.004 -0.002 -0.000
13958 4 -0.812 1.096 -0.264 0.005 -0.000 -0.004 0.000
846 4 11.766 5.528 5.887 -0.001 0.005 -0.003 -0.000
281 4 6.357 -1.753 3.593 0.004 0.002 0.002 -0.000
4558 4 8.250 14.042 11.178 -0.010 -0.001 -0.011 -0.000
3468 4 5.771 9.299 13.349 -0.004 -0.004 -0.001 -0.000
174 4 -4.113 9.903 2.041 -0.011 0.002 -0.009 -0.000
12752 4 6.175 3.098 5.582 -0.010 0.000 -0.004 0.000
20276 4 6.156 0.223 16.179 -0.002 -0.001 0.010 0.000
5709 4 6.054 6.331 3.007 0.006 -0.002 -0.006 0.000
27522 4 10.362 7.518 4.734 0.003 -0.014 0.005 -0.000
251 4 7.973 4.371 -3.347 0.007 0.011 -0.004 -0.000
2524 4 -1.652 2.950 7.473 0.003 0.007 -0.002 -0.000
16122 4 7.485 8.744 18.023 0.003 0.001 -0.004 -0.000
4440 4 2.325 1.930 8.374 0.004 0.003 0.005 0.000
2179 4 10.499 11.869 8.641 -0.003 0.010 0.000 0.000
5760 4 4.108 8.788 6.191 0.007 -0.001 -0.009 0.000
19734 4 3.371 3.791 -4.445 -0.002 -0.012 0.007 0.000
1614 4 6.551 4.180 15.257 -0.007 -0.005 0.007 -0.000
1291 4 5.358 2.246 8.912 -0.001 -0.007 -0.004 0.000
10758 4 6.532 6.327 14.907 0.001 -0.011 0.004 0.000
17209 4 5.648 3.827 -3.501 -0.001 -0.006 0.000 -0.000
19801 4 -0.320 4.240 15.073 0.006 0.008 0.002 -0.000
11568 4 0.537 10.853 20.034 0.004 -0.005 0.009 0.000
14714 4 -0.278 1.762 9.330 -0.002 0.002 -0.006 0.000
6274 4 -0.713 10.650 -0.099 0.011 0.007 -0.009 -0.000
9685 4 1.889 11.472 2.547 -0.000 0.003 -0.003 -0.000
9946 4 11.303 -2.731 17.096 0.002 0.011 0.009 -0.000
7065 4 -0.736 12.363 3.598 -0.003 0.001 -0.002 0.000
421 4 4.203 -0.062 10.000 -0.001 -0.002 0.001 -0.000
9137 4 9.510 5.916 12.335 0.007 0.004 -0.014 0.000
19353 4 10.151 8.527 -4.929 0.004 -0.003 -0.007 0.000
503 4 10.047 2.387 2.817 0.002 -0.004 0.006 0.000
810 4 10.002 2.150 17.119 -0.002 0.007 0.004 0.000
27123 4 -2.333 -1.187 4.900 -0.005 0.010 -0.003 0.000
41 4 9.210 7.067 10.051 0.002 0.004 0.009 -0.000
3271 4 4.644 3.513 3.430 -0.001 0.008 -0.003 0.000
1240 4 7.054 9.737 1.150 -0.008 -0.005 -0.004 -0.000
6877 4 -1.354 10.870 9.064 -0.006 -0.007 -0.007 0.000
847 4 6.993 8.312 4.933 0.004 -0.006 -0.002 0.000
406 4 12.709 9.705 -3.582 0.010 0.007 0.006 0.000
27130 4 7.587 2.459 8.111 0.002 -0.001 -0.002 -0.000
19737 4 1.625 13.657 3.813 0.002 0.005 0.002 -0.000
5000 4 0.668 12.495 8.490 0.007 -0.005 0.001 0.000
5838 4 8.777 11.724 13.892 -0.004 0.001 -0.003 -0.000
11139 4 9.911 0.521 14.601 0.006 0.004 -0.001 -0.000
17820 4 2.856 12.469 -0.086 0.005 0.012 0.003 0.000
13075 4 4.365 5.952 1.262 0.010 -0.010 -0.003 -0.000
14716 4 11.826 0.292 4.031 0.007 -0.002 -0.008 0.000
214 4 2.784 1.492 2.296 -0.005 0.008 -0.002 -0.000
1369 4 12.107 2.270 18.348 0.012 -0.013 -0.002 0.000
8698 4 6.733 1.721 18.153 -0.004 -0.000 0.003 -0.000
4353 4 6.554 13.023 3.451 0.000 0.004 -0.001 0.000
1708 4 12.456 12.044 -2.441 0.003 -0.005 -0.005 0.000
2909 4 7.727 -0.608 14.628 0.003 -0.004 0.007 -0.000
9921 4 4.545 9.857 0.184 0.005 0.005 -0.006 0.000
2462 4 4.419 7.584 14.928 0.001 -0.005 0.008 -0.000
10657 4 6.015 10.399 10.959 0.005 -0.001 0.002 0.000
3286 4 4.936 7.859 17.689 0.001 -0.011 -0.007 0.000
3134 4 1.611 0.171 14.483 -0.001 -0.004 0.004 0.000
22878 4 2.377 4.378 2.003 -0.012 0.002 -0.001 0.000
3217 4 13.236 2.403 2.490 -0.003 -0.004 -0.001 0.000
19887 4 1.168 4.831 5.653 0.006 -0.002 -0.004 0.000
4078 4 6.030 7.639 7.292 -0.004 0.003 0.009 -0.000
18510 4 8.180 8.256 -3.120 0.001 0.012 0.016 -0.000
13997 4 -0.682 0.301 6.465 0.005 -0.003 -0.004 0.000
4910 4 -3.215 4.922 -1.579 0.003 -0.002 0.001 0.000
13594 4 9.559 3.625 14.660 -0.009 0.003 -0.005 0.000
7837 4 7.626 9.529 20.625 0.006 -0.006 0.005 0.000
19682 4 -0.197 0.171 -5.705 0.012 0.012 0.001 0.000
3010 4 4.148 3.438 0.902 -0.002 -0.006 0.006 -0.000
5020 4 4.869 0.366 4.490 -0.016 -0.001 0.010 -0.000
2832 4 9.021 5.481 21.121 -0.002 -0.001 0.007 0.000
1651 4 -0.842 -2.807 2.893 -0.006 -0.002 0.006 0.000
5357 4 -1.363 3.290 -2.055 0.010 -0.004 -0.007 -0.000
2412 4 -3.317 9.824 20.340 -0.002 0.009 0.004 -0.000
55 4 12.209 14.065 9.580 0.008 0.003 -0.001 -0.000
9924 4 -2.804 9.321 0.373 0.005 -0.006 -0.009 0.000
2108 4 10.852 8.696 15.531 0.000 0.008 0.004 -0.000
5739 4 8.981 14.819 6.510 -0.001 0.001 0.011 -0.000
164 4 -1.561 6.999 9.139 0.006 -0.006 0.009 0.000
1249 4 8.209 5.519 -1.010 -0.006 -0.009 -0.006 0.000
1046 4 12.351 12.060 11.940 -0.014 -0.005 -0.008 -0.000
1331 4 5.450 3.771 18.838 -0.006 -0.009 -0.001 0.000
163 4 1.878 3.320 4.148 0.003 -0.006 -0.001 -0.000
2208 4 -1.798 7.789 19.567 -0.006 0.008 0.007 -0.000
27247 4 1.299 2.167 -3.942 -0.005 0.005 0.001 -0.000
2066 4 10.115 5.231 18.252 0.011 0.001 0.009 0.000
26705 4 9.628 11.862 4.459 0.007 -0.004 -0.007 0.000
168 4 3.949 15.167 4.339 0.004 -0.006 -0.003 -0.000
13194 4 4.951 12.684 10.157 -0.018 0.004 0.005 -0.000
19488 4 -1.997 3.840 0.735 0.002 -0.005 -0.008 -0.000
9933 4 -1.732 10.437 2.512 -0.010 0.008 0.004 -0.000
6583 4 -0.877 4.649 10.449 0.002 -0.006 -0.000 0.000
13180 4 4.396 6.081 10.141 0.007 -0.000 0.010 0.000
13143 4 4.858 3.726 11.374 0.002 0.010 0.006 0.000
5516 4 0.893 7.689 5.204 -0.004 -0.006 -0.003 -0.000
2339 4 5.277 11.610 -4.321 0.002 0.007 -0.004 0.000
6063 4 0.252 8.643 -0.931 -0.010 -0.009 0.005 -0.000
4839 4 -3.030 7.861 17.084 -0.004 -0.012 0.003 -0.000
982 4 11.818 7.042 -4.456 0.007 -0.003 -0.007 0.000
161 4 -4.876 1.235 10.441 -0.006 0.000 0.009 -0.000
27574 4 -2.967 1.266 -2.044 0.018 0.005 -0.000 0.000
14351 4 1.134 -0.195 16.679 0.007 0.001 -0.004 -0.000
4232 4 -1.441 14.793 2.990 -0.003 -0.003 -0.006 -0.000
12797 4 -0.408 -1.490 -0.672 -0.018 0.004 -0.003 0.000
7384 4 -3.876 3.093 12.404 0.005 -0.005 0.012 -0.000
22875 4 3.461 3.401 -2.116 -0.012 0.004 0.003 0.000
4955 4 -0.652 11.854 14.406 0.020 0.007 -0.005 -0.000
13115 4 8.012 2.015 15.568 0.003 -0.004 -0.001 0.000
5839 4 1.425 12.527 16.419 0.001 -0.003 -0.016 0.000
9535 4 1.068 13.609 -4.302 -0.001 0.008 0.009 0.000
20152 4 3.518 0.150 15.680 0.000 0.005 0.003 0.000
2201 4 -0.211 2.201 17.063 0.007 -0.003 -0.001 0.000
492 4 2.857 7.822 -4.276 -0.006 0.014 0.001 0.000
2449 4 5.018 -2.230 16.589 0.008 0.002 0.007 -0.000
11552 4 8.777 7.663 14.094 -0.000 0.003 0.000 -0.000
7272 4 6.559 14.446 8.982 0.001 0.008 -0.010 0.000
9583 4 5.413 5.180 -0.749 0.003 -0.000 0.009 -0.000
528 4 12.176 9.301 11.284 -0.001 -0.004 -0.008 0.000
14188 4 0.869 9.980 9.247 -0.011 0.003 -0.003 0.000
3006 4 4.199 14.218 17.414 0.002 0.000 -0.000 -0.000
6539 4 0.420 10.133 16.769 0.007 -0.001 0.003 -0.000
19264 4 5.007 11.243 2.060 -0.002 -0.001 -0.002 -0.000
19814 4 4.106 1.638 -5.883 -0.002 0.008 -0.004 0.000
5315 4 6.346 11.398 14.790 -0.009 0.010 0.001 -0.000
9962 4 3.783 -0.925 18.619 -0.001 -0.006 0.007 0.000
5335 4 -3.117 5.275 11.008 -0.010 0.005 0.006 0.000
6996 4 7.421 5.777 17.199 0.005 0.008 -0.003 0.000
3082 4 10.086 11.182 -3.544 0.006 -0.009 0.004 0.000
7542 4 -2.263 5.491 18.282 -0.002 0.001 0.003 -0.000
1736 4 7.856 10.983 6.851 0.007 -0.006 -0.002 0.000
944 4 5.068 5.816 -5.717 0.012 0.003 0.001 -0.000
16209 4 2.154 -2.150 15.811 -0.001 -0.006 0.005 0.000
18523 4 -4.237 7.362 -0.324 -0.002 -0.002 -0.004 -0.000
2652 4 8.193 14.740 -4.790 0.003 -0.005 -0.013 0.000
13916 4 -1.517 8.112 3.216 0.001 -0.005 0.002 0.000
15584 4 -3.196 -2.322 13.002 -0.013 -0.004 -0.000 -0.000
2046 4 -2.698 6.015 13.756 -0.002 0.008 -0.001 -0.000
24378 4 0.605 9.670 13.645 0.003 -0.012 0.004 -0.000
17489 4 5.694 9.873 16.572 0.013 0.008 -0.001 0.000
2948 4 13.901 3.107 16.557 -0.001 0.000 -0.005 -0.000
6923 4 9.855 7.257 17.302 0.006 -0.013 0.007 -0.000
6953 4 -0.975 0.605 -3.161 -0.003 0.003 0.003 -0.000
5227 4 -3.227 5.219 7.905 -0.006 0.002 0.013 0.000
3642 4 7.864 0.917 20.161 -0.006 -0.012 -0.004 0.000
1760 4 9.273 11.641 2.221 -0.002 0.003 -0.008 0.000
2631 4 9.446 10.595 18.498 0.003 0.001 -0.000 -0.000
785 4 -1.153 7.194 0.659 -0.010 0.005 0.003 -0.000
6921 4 11.064 12.883 5.924 0.006 -0.011 -0.005 -0.000
18965 4 4.103 7.559 -1.220 0.000 0.001 -0.001 -0.000
2401 4 -0.390 3.416 19.597 0.000 0.005 -0.000 -0.000
6959 4 -2.768 12.727 16.071 -0.004 -0.008 0.002 -0.000
2579 4 0.163 12.457 0.791 0.008 0.008 -0.002 -0.000
13111 4 7.871 -0.516 11.697 -0.006 -0.001 -0.003 -0.000
1667 4 12.383 7.971 13.557 0.000 -0.001 -0.007 -0.000
3143 4 0.633 6.812 20.030 -0.000 -0.005 -0.003 -0.000
20478 4 2.181 5.178 11.078 0.007 -0.005 0.003 -0.000
4091 4 1.615 7.641 10.452 -0.003 0.005 0.002 -0.000
8695 4 6.877 1.359 -3.370 0.010 0.004 -0.006 -0.000
525 4 13.401 5.405 10.358 -0.002 -0.000 0.012 0.000
4556 4 11.733 -0.151 16.589 0.005 0.003 -0.009 0.000
9097 4 0.627 4.007 7.943 0.007 -0.004 0.010 0.000
6158 4 0.327 -2.491 13.954 -0.004 -0.015 0.005 -0.000
3203 4 11.061 6.478 14.994 -0.001 -0.006 0.015 0.000
5221 4 4.865 2.326 13.889 0.002 0.010 -0.002 0.000
7305 4 -0.710 -0.877 12.064 -0.005 -0.000 -0.001 -0.000
3722 4 -0.676 5.731 -1.376 -0.007 -0.001 0.007 -0.000
23506 4 -1.583 10.079 -2.452 0.004 -0.001 -0.006 -0.000
5235 4 -1.118 6.215 16.208 0.005 0.003 -0.001 0.000
16650 4 -1.582 12.054 20.569 0.002 -0.011 0.010 -0.000
1367 4 2.077 2.927 15.839 -0.001 0.007 0.001 0.000
4610 4 1.541 1.400 18.860 0.012 -0.002 0.006 0.000
9565 4 7.604 12.451 19.762 -0.004 -0.003 0.002 -0.000
2133 4 1.427 0.685 4.496 -0.007 -0.001 -0.001 -0.000
1408 4 7.802 13.395 0.934 0.001 0.001 0.003 0.000
8635 4 8.192 1.743 -5.643 0.000 0.001 0.003 -0.000
5676 4 -0.454 9.898 7.017 0.006 -0.007 0.010 -0.000
2458 4 8.831 -0.490 16.779 -0.000 -0.006 -0.005 -0.000
27926 4 -2.408 -1.978 7.472 -0.002 -0.003 0.002 -0.000
14359 4 7.469 4.817 6.938 0.016 0.016 -0.002 -0.000
1704 4 -3.446 2.600 -3.834 0.001 0.000 0.002 -0.000
5757 4 1.775 2.539 -0.572 -0.013 -0.003 -0.003 -0.000
8644 4 9.146 0.974 10.331 -0.004 0.002 0.000 -0.000
2563 4 4.498 5.896 12.581 0.004 -0.009 0.000 -0.000
9525 4 -2.308 0.834 8.656 -0.009 0.001 0.006 0.000
4829 4 -2.526 12.240 -0.840 0.009 -0.010 -0.010 -0.000
613 4 -1.256 14.361 -1.489 -0.002 0.012 -0.008 -0.000
11454 4 -1.220 14.676 5.535 0.001 0.005 0.012 0.000
1646 4 12.597 3.591 8.981 0.001 -0.003 0.007 -0.000
10727 4 3.352 0.602 12.899 -0.007 0.003 0.004 -0.000
7277 4 -4.124 -0.842 9.098 0.009 -0.001 0.006 0.000
2977 4 11.398 4.512 16.119 0.003 0.004 0.007 0.000
1973 4 3.537 12.336 8.141 -0.004 0.008 -0.009 0.000
3256 4 -1.990 14.445 17.729 -0.000 -0.007 -0.009 0.000
2251 4 -0.040 12.414 18.395 0.002 0.004 0.003 -0.000
19009 4 9.212 10.433 -1.155 -0.001 -0.010 -0.010 -0.000
4436 4 3.726 0.698 -0.276 -0.010 -0.002 0.006 0.000
6824 4 2.579 11.990 10.766 0.005 -0.009 0.007 0.000
580 4 12.491 11.343 9.758 -0.002 0.003 0.001 0.000
7878 4 -0.461 11.129 11.991 0.005 0.004 -0.008 0.000
12720 4 4.376 1.257 -2.753 0.013 -0.004 0.008 -0.000
4432 4 -1.374 2.618 4.809 0.011 0.007 -0.005 0.000
5723 4 9.952 3.944 7.432 -0.008 0.008 0.001 -0.000
9577 4 13.774 5.817 12.582 0.013 -0.003 0.003 -0.000
16004 4 1.789 0.973 10.678 0.006 0.009 -0.005 0.000
3739 4 10.801 -1.874 19.070 0.011 0.000 0.001 0.000
8004 4 9.628 1.736 -2.770 -0.004 0.000 0.001 0.000
18969 4 7.122 13.479 -2.515 -0.009 -0.004 0.010 0.000
1871 4 11.160 13.492 13.932 -0.006 -0.002 0.006 0.000
1004 4 6.020 -1.034 -2.324 -0.009 0.012 -0.005 0.000
1012 4 3.634 -3.488 1.415 -0.015 -0.001 -0.011 -0.000
22876 4 -3.154 0.091 -4.898 0.003 -0.001 0.013 -0.000
494 4 9.005 1.478 4.901 -0.003 0.009 -0.009 0.000
489 4 3.522 9.914 -2.816 -0.011 0.009 -0.002 0.000
2087 4 7.363 5.667 -5.136 -0.007 0.019 -0.002 -0.000
12786 4 -2.972 1.162 5.783 -0.009 -0.006 0.008 -0.000
203 4 9.801 9.527 3.390 0.009 -0.001 -0.003 -0.000
19267 4 3.865 13.072 -2.641 0.006 -0.000 -0.003 -0.000
3774 4 11.952 8.975 17.920 0.012 -0.004 0.003 -0.000
7342 4 -2.638 2.916 18.821 -0.010 0.001 -0.010 0.000
1295 4 8.684 -0.261 -0.765 -0.005 0.003 -0.006 -0.000
16764 4 -1.419 6.981 11.893 0.006 -0.001 -0.012 0.000
6067 4 -0.572 7.797 14.503 0.007 -0.000 0.002 -0.000
6224 4 0.662 14.437 17.725 -0.007 -0.003 -0.009 0.000
20542 4 -4.749 9.730 18.502 0.014 -0.010 -0.002 -0.000
11555 4 13.271 9.311 20.420 0.017 -0.002 0.000 0.000
16208 4 12.619 13.220 16.336 0.009 0.005 -0.003 0.000
9053 4 -2.359 3.045 9.641 0.011 0.004 0.012 0.000
1657 4 10.442 -1.092 12.695 -0.006 -0.008 -0.007 0.000
3284 4 9.941 0.444 18.919 0.003 0.011 0.005 -0.000
1062 4 -3.348 10.550 5.202 0.002 -0.006 0.010 0.000
2678 4 2.213 13.838 12.690 0.002 0.001 -0.001 0.000
19292 4 2.579 11.764 -4.477 -0.005 0.006 0.003 0.000
3296 4 -0.913 -0.762 15.654 -0.013 0.001 -0.007 0.000
11162 4 13.480 -1.812 17.683 0.003 -0.001 0.012 0.000
4511 4 0.043 6.534 -4.125 0.009 -0.009 -0.000 -0.000
2191 4 11.313 13.294 2.898 0.004 0.001 -0.015 0.000
6147 4 -2.378 9.360 12.815 0.001 -0.004 -0.003 -0.000
7704 4 -2.878 -2.442 10.386 -0.003 -0.002 0.005 -0.000
11168 4 0.456 2.309 1.999 -0.007 -0.001 0.007 -0.000
11191 4 11.649 6.647 11.585 -0.000 -0.012 -0.004 0.000
6472 4 14.141 3.741 13.916 -0.001 0.004 0.005 -0.000
5060 4 -1.206 14.520 15.250 -0.008 -0.005 0.000 0.000
3364 4 -1.129 0.958 18.831 0.009 -0.001 -0.001 0.000
1220 4 5.383 2.800 16.547 0.001 -0.004 0.006 0.000
10031 4 10.042 11.667 16.573 0.004 -0.012 0.006 -0.000
13596 4 1.133 -2.049 10.999 -0.001 -0.002 -0.005 -0.000
18481 4 2.245 -1.362 2.770 0.002 0.003 -0.008 -0.000
8692 4 0.307 -2.011 -3.244 0.002 -0.002 0.008 0.000
20916 4 -2.422 5.239 20.688 -0.001 -0.004 0.006 0.000
19201 4 -4.168 9.731 -1.737 0.003 -0.007 0.006 -0.000
445 4 10.728 -0.927 -1.856 0.002 0.004 0.012 -0.000
8656 4 7.736 -1.140 1.706 0.002 -0.005 -0.008 0.000
1217 4 -4.936 -1.529 6.196 0.002 0.002 -0.001 0.000
13556 4 -2.469 1.346 2.962 0.010 0.003 0.003 0.000
3664 4 -4.864 -1.559 18.348 -0.002 0.017 0.007 0.000
504 4 5.946 -0.389 -0.119 0.003 -0.004 -0.001 -0.000
6187 4 -2.342 3.652 16.241 -0.003 -0.007 0.005 -0.000
3616 4 -1.811 9.451 15.737 -0.014 -0.014 0.001 -0.000
1608 4 7.363 11.688 17.040 -0.001 0.003 -0.009 -0.000
841 4 -2.125 12.959 8.666 0.001 0.004 0.013 0.000
10332 4 12.567 2.504 -2.754 -0.005 -0.000 -0.002 -0.000
2210 4 8.760 13.547 15.913 -0.004 0.000 0.004 0.000
7259 4 14.565 13.061 10.564 -0.008 -0.001 0.007 -0.000
31595 4 -3.493 3.695 5.955 -0.009 0.006 0.005 -0.000
4547 4 -0.499 9.094 11.052 -0.011 -0.004 -0.003 -0.000
10305 4 9.922 -1.861 1.050 -0.001 0.002 -0.005 -0.000
12393 4 10.739 1.356 7.066 0.004 0.002 0.004 -0.000
1609 4 1.738 10.251 -0.018 -0.002 0.005 -0.002 0.000
1281 4 7.407 0.603 6.184 0.007 0.006 -0.000 -0.000
20669 4 11.470 4.551 13.502 -0.005 -0.001 0.004 0.000
2243 4 13.504 13.855 20.385 0.005 0.005 0.002 -0.000
486 4 10.688 3.960 -4.173 0.008 0.001 -0.003 0.000
9487 4 2.132 -0.153 -1.793 -0.002 0.004 -0.009 0.000
24288 4 -3.313 1.404 17.110 -0.008 -0.009 -0.007 -0.000
2001 4 8.115 3.968 17.650 -0.004 0.000 0.005 0.000
2860 4 0.161 10.986 -4.242 0.002 0.008 0.007 -0.000
9402 4 -0.528 -0.224 1.881 -0.009 -0.012 0.002 0.000
5360 4 10.742 -1.878 14.996 0.005 0.010 0.000 -0.000
19764 4 1.392 6.663 -1.628 -0.008 0.005 -0.006 0.000
10730 4 9.902 3.300 19.540 0.002 -0.005 -0.012 0.000
12386 4 -4.311 -2.674 3.912 0.007 0.003 0.001 0.000
23632 4 5.212 -2.329 6.207 -0.004 0.009 0.004 -0.000
1368 4 5.412 14.079 -4.485 -0.004 -0.000 0.005 0.000
22436 4 10.358 3.971 -1.903 0.004 -0.008 0.004 -0.000
88 4 1.995 -2.728 -0.965 -0.010 -0.001 -0.007 0.000
1226 4 10.852 1.118 -0.737 0.001 0.000 -0.003 -0.000
5319 4 -5.605 -3.420 11.952 -0.002 -0.001 0.006 0.000
5381 4 -2.613 -0.493 0.381 0.002 0.008 0.005 0.000
19215 4 1.810 -0.083 -4.423 -0.002 0.002 0.003 0.000
6037 4 -2.803 -2.997 15.890 -0.005 0.007 -0.004 -0.000
6961 4 10.486 8.819 20.404 -0.001 0.004 0.003 -0.000
2867 4 6.524 6.658 -2.672 -0.001 0.002 -0.002 -0.000
18924 4 0.958 12.290 -1.744 0.001 -0.004 0.001 0.000
17497 4 12.935 3.245 11.460 -0.001 0.006 0.005 -0.000
3283 4 4.022 1.570 18.665 -0.001 -0.003 0.003 -0.000
23659 4 -2.032 7.655 -1.993 -0.002 -0.005 0.004 -0.000
2802 4 11.429 11.108 14.187 0.005 0.010 -0.004 0.000
8645 4 10.099 -2.223 7.422 -0.005 0.003 0.010 -0.000
19419 4 -1.675 12.799 -5.105 -0.005 0.008 0.003 -0.000
444 4 5.633 -0.479 7.854 0.002 -0.007 0.002 -0.000
1790 4 11.798 0.740 1.430 0.008 -0.007 -0.004 -0.000
1774 4 8.616 -3.226 10.998 -0.016 -0.003 0.003 0.000
23831 4 7.572 10.364 3.494 0.000 0.012 0.005 -0.000
6880 4 -2.285 10.944 17.919 0.013 0.004 -0.009 -0.000
9981 4 13.309 -0.747 -1.111 0.011 -0.001 -0.019 -0.000
5852 4 3.926 13.911 6.119 -0.000 -0.002 -0.007 0.000
1124 4 -2.852 12.006 13.778 -0.004 -0.001 -0.002 -0.000
19307 4 0.366 -2.676 7.214 -0.005 -0.001 -0.003 0.000
6980 4 -4.852 -0.667 15.695 -0.005 0.005 -0.003 -0.000
2407 4 -1.623 1.530 13.687 0.001 0.002 0.000 -0.000
2830 4 11.438 3.119 5.395 -0.000 0.001 0.003 0.000
4198 4 -4.534 9.080 7.485 -0.006 -0.005 -0.006 0.000
1767 4 10.531 7.182 2.443 0.001 -0.009 0.003 0.000
1290 4 1.143 15.179 11.305 0.001 0.008 0.008 -0.000
4872 4 -5.517 4.301 7.341 -0.001 -0.009 -0.007 -0.000
2152 4 12.121 5.500 -2.040 0.005 -0.001 0.002 0.000
25492 4 -2.448 -0.990 17.731 0.003 -0.003 -0.006 -0.000
9466 4 13.274 -1.693 5.176 0.005 0.006 -0.003 -0.000
23630 4 -3.438 7.354 2.080 0.009 -0.006 0.010 0.000
5080 4 12.766 14.045 0.559 -0.002 -0.007 -0.005 0.000
1632 4 7.610 -0.219 8.937 -0.001 0.008 0.008 -0.000
97 4 11.071 -2.354 -3.859 -0.005 -0.001 -0.015 -0.000
11089 4 13.178 1.603 7.387 0.006 0.006 -0.008 0.000
4552 4 13.011 13.096 4.819 -0.011 0.007 -0.001 -0.000
6020 4 -4.459 5.658 16.479 -0.001 -0.004 0.008 0.000
564 4 13.892 4.159 6.320 -0.001 0.005 0.001 0.000
335 4 14.054 11.469 -0.352 -0.002 -0.007 0.012 -0.000
19052 4 5.669 8.729 -4.557 0.003 0.000 -0.007 0.000
1881 4 5.393 -2.839 19.443 0.006 0.002 -0.004 0.000
5630 4 -4.249 4.856 19.121 0.003 -0.002 0.002 -0.000
7075 4 -1.466 -0.499 21.401 -0.001 0.005 -0.001 -0.000
9131 4 13.125 -0.367 14.040 0.007 -0.003 0.003 -0.000
1801 4 7.280 10.840 -3.143 -0.000 0.005 -0.002 -0.000
1781 4 12.000 10.217 -0.833 -0.002 -0.003 0.005 0.000
172 4 -1.168 2.058 -5.305 0.002 0.005 0.000 -0.000
1701 4 10.814 12.181 -0.067 0.000 -0.006 0.004 -0.000
2259 4 -4.130 11.810 6.968 0.011 -0.003 -0.000 -0.000
10374 4 13.031 9.859 6.328 -0.007 0.001 0.003 -0.000
820 4 5.883 -0.081 -5.160 0.009 0.001 0.001 0.000
7219 4 -2.765 12.804 1.814 -0.012 -0.003 0.002 0.000
977 4 6.083 11.808 -0.258 -0.004 -0.011 -0.002 0.000
7239 4 8.211 14.649 13.712 0.005 -0.010 0.003 -0.000
16606 4 2.534 13.004 18.626 0.009 -0.007 0.004 -0.000
7781 4 -4.175 7.544 12.306 0.000 -0.002 0.002 0.000
13588 4 -4.087 7.141 9.161 0.003 0.009 0.008 0.000
1912 4 10.142 11.695 20.584 0.001 0.002 0.008 -0.000
25582 4 -2.009 -1.801 -4.194 0.002 -0.008 -0.001 -0.000
2525 4 13.794 -2.974 7.169 0.000 -0.009 0.006 0.000
6139 4 7.689 -1.278 19.031 0.004 0.010 0.006 0.000
1284 4 3.188 6.209 19.805 -0.007 0.005 -0.001 -0.000
897 4 -3.359 3.851 3.344 -0.013 0.001 -0.002 -0.000
3521 4 1.318 -1.162 19.015 -0.008 0.000 0.011 0.000
2174 4 12.782 7.699 -1.286 -0.006 0.010 0.000 0.000
11919 4 2.537 3.027 20.439 0.006 -0.011 -0.013 0.000
5712 4 14.619 -1.419 0.600 0.010 0.003 -0.007 -0.000
3048 4 4.399 14.669 13.954 -0.002 0.005 -0.007 -0.000
13829 4 -4.203 0.339 13.011 0.010 0.000 0.007 -0.000
247 4 14.567 14.359 8.664 -0.005 0.003 0.014 0.000
875 4 13.312 12.425 7.163 0.005 -0.003 -0.001 -0.000
2209 4 12.480 10.751 16.587 -0.004 0.004 -0.006 -0.000
1944 4 0.712 9.156 -3.239 -0.009 -0.003 0.012 -0.000
22957 4 -1.564 8.735 -4.781 0.001 0.009 0.000 0.000
8762 4 13.741 1.427 0.042 -0.004 0.000 -0.007 -0.000
6146 4 -3.509 7.960 14.794 0.003 0.007 0.003 0.000
13520 4 0.200 -2.881 16.807 -0.013 -0.002 0.008 -0.000
1380 4 -3.964 12.030 -3.196 -0.002 0.002 0.001 0.000
901 4 11.721 10.220 1.543 -0.002 -0.003 0.004 -0.000
190 4 12.149 3.299 0.019 0.000 -0.001 -0.002 0.000
31994 4 -2.957 -1.070 -2.067 0.009 -0.004 -0.002 0.000
14355 4 -3.413 0.657 19.803 -0.008 0.011 -0.007 -0.000
13240 4 -0.932 12.321 6.483 0.006 0.001 0.003 -0.000
11123 4 -3.589 -2.041 20.711 -0.003 0.001 0.008 -0.000
7604 4 13.963 0.296 16.521 -0.001 -0.003 0.006 -0.000
4954 4 1.110 15.162 -2.828 -0.009 0.013 -0.007 0.000
123 4 1.388 14.817 0.821 0.002 -0.001 0.012 -0.000
3669 4 14.537 0.167 19.366 0.010 -0.004 -0.006 0.000
2895 4 6.248 13.790 14.981 -0.008 0.008 -0.005 0.000
1409 4 14.460 1.258 11.987 0.012 0.015 -0.005 -0.000
6429 4 3.814 -1.756 14.103 0.000 -0.003 -0.003 -0.000
4428 4 9.501 -2.943 -1.255 -0.001 -0.003 -0.006 -0.000
2093 4 3.763 14.351 11.086 -0.003 -0.017 0.011 0.000
7040 4 -0.278 14.301 20.006 -0.007 -0.007 -0.005 -0.000
1402 4 -3.982 7.102 19.286 0.002 -0.003 0.005 0.000
20267 4 3.279 0.241 21.019 0.003 -0.004 -0.001 0.000
7303 4 -3.612 2.027 0.510 0.005 -0.006 0.001 -0.000
9884 4 -4.670 12.462 9.700 0.001 0.013 -0.006 -0.000
28116 4 -3.724 14.303 14.391 -0.000 0.006 -0.002 0.000
19774 4 3.369 -2.002 -3.186 0.003 -0.010 -0.007 0.000
6480 4 -2.944 -1.046 2.387 -0.013 0.002 0.008 -0.000
962 4 6.037 12.627 7.044 -0.002 -0.002 -0.002 -0.000
4592 4 -2.668 11.959 11.095 0.000 -0.004 -0.004 -0.000
27068 4 4.666 -0.763 1.899 -0.004 0.011 0.004 -0.000
11056 4 5.439 -0.443 20.427 0.001 -0.020 0.001 -0.000
3760 4 12.865 7.094 19.693 -0.001 -0.002 0.008 -0.000
23998 4 3.276 9.471 -5.636 0.004 0.000 -0.004 -0.000
19342 4 12.703 9.155 3.868 -0.001 0.005 0.013 -0.000
20001 4 13.483 4.912 18.224 -0.009 -0.007 -0.010 0.000
6032 4 11.659 12.848 18.582 0.002 -0.016 0.001 -0.000
2514 4 4.196 -2.051 8.671 -0.001 0.003 -0.002 -0.000
2974 4 5.974 14.844 20.408 0.008 -0.004 0.007 -0.000
11892 4 -5.257 11.102 21.379 0.004 0.004 0.005 -0.000
7393 4 -4.006 2.084 14.608 0.010 -0.012 0.006 -0.000
7666 4 5.675 1.972 20.823 0.003 -0.011 -0.001 0.000
4517 4 10.767 6.785 -0.372 0.009 -0.008 -0.007 0.000
23778 4 -4.701 4.149 1.102 -0.008 0.003 -0.000 0.000
291 4 5.537 14.613 -1.156 0.006 0.005 0.003 0.000
1656 4 0.574 -3.055 0.734 -0.001 0.003 -0.008 0.000
19785 4 -4.946 0.927 7.531 -0.004 -0.004 -0.001 -0.000
1807 4 -3.235 5.375 -4.150 -0.004 0.002 0.003 0.000
13199 4 13.719 4.568 1.397 -0.003 0.004 0.003 -0.000
28397 4 -4.345 2.252 21.418 0.008 0.002 0.017 0.000
8784 4 1.099 14.003 6.401 0.009 -0.006 -0.004 -0.000
23957 4 -2.897 14.726 0.923 0.007 -0.001 0.006 -0.000
2124 4 6.555 13.870 17.395 -0.008 0.005 0.011 -0.000
14706 4 2.838 -3.366 17.778 -0.001 0.006 -0.003 0.000
4894 4 14.625 9.316 17.462 -0.001 -0.004 0.001 0.000
1013 4 12.419 14.676 -1.774 -0.001 0.015 -0.003 0.000
2427 4 10.911 14.919 4.845 0.016 -0.012 0.010 0.000
2506 4 14.348 6.312 -3.151 -0.005 0.007 0.002 0.000
942 4 14.775 9.355 -1.772 0.012 0.005 -0.006 -0.000
1748 4 13.070 -1.070 -3.664 -0.001 -0.012 0.006 -0.000
5114 4 -0.369 14.296 8.240 0.012 -0.002 -0.007 0.000
8790 4 13.574 1.956 4.931 -0.006 0.002 -0.019 0.000
9058 4 -5.275 3.150 -1.582 -0.006 -0.005 -0.003 0.000
4168 4 1.638 14.686 14.789 -0.006 -0.001 -0.014 0.000
8421 4 -4.512 14.237 17.026 0.007 -0.004 -0.006 0.000
7320 4 -1.210 -2.612 19.303 -0.003 0.001 -0.010 0.000
12796 4 6.833 -2.659 14.892 0.001 0.002 0.005 0.000
2414 4 4.841 8.384 20.463 -0.002 0.014 0.005 -0.000
23835 4 -4.962 -0.290 0.871 -0.009 0.004 -0.003 0.000
20227 4 -4.240 9.986 15.715 0.003 0.001 -0.005 -0.000
491 4 -1.662 15.236 -3.885 -0.001 0.006 -0.007 0.000
17364 4 -4.340 8.714 -4.296 0.006 -0.012 -0.007 0.000
5359 4 14.271 11.548 19.743 -0.003 -0.009 0.001 -0.000
610 4 12.204 4.521 19.881 -0.006 -0.013 -0.007 -0.000
2325 4 14.702 11.205 -4.460 0.003 0.003 -0.007 0.000
7360 4 -1.828 13.984 12.668 -0.007 -0.006 0.006 0.000
2666 4 2.316 15.092 19.726 -0.002 -0.011 -0.004 -0.000
5711 4 -5.463 -2.797 8.767 -0.012 -0.010 0.005 -0.000