ITEM: TIMESTEP
27000
ITEM: NUMBER OF ATOMS
32000
ITEM: BOX BOUNDS pp pp pp
-5.847077 76.327077
-4.186650 74.666650
-5.358984 75.838984
ITEM: ATOMS id type x y z vx vy vz q
488 4 -1.953 9.027 11.423 0.003 0.002 0.002 -0.000
529 4 0.930 12.254 17.581 0.016 0.004 0.001 0.000
531 4 1.263 8.643 12.562 0.002 -0.005 -0.001 -0.000
893 4 5.779 1.953 -0.020 0.000 0.003 -0.009 -0.000
896 4 7.678 -0.364 18.979 -0.003 0.010 0.002 -0.000
1206 4 5.073 6.310 4.546 0.005 0.008 -0.003 -0.000
1218 4 12.510 2.360 0.538 0.000 -0.009 -0.009 -0.000
1250 4 9.106 4.338 -1.714 0.001 -0.003 0.002 -0.000
1285 4 -0.619 9.149 6.650 -0.001 -0.004 -0.005 -0.000
1329 4 11.446 15.100 6.476 -0.002 0.001 0.006 0.000
1610 4 -3.574 -0.347 6.218 0.012 0.004 0.009 -0.000
1644 4 11.988 1.020 15.587 0.003 0.009 0.003 -0.000
1646 4 5.265 0.940 9.924 0.002 -0.011 0.003 0.000
1650 4 -0.595 13.119 1.941 0.006 -0.002 0.008 0.000
1651 4 1.508 7.233 10.850 -0.008 -0.001 0.005 -0.000
1655 4 5.870 3.395 9.540 -0.002 -0.005 0.006 -0.000
1689 4 4.537 0.488 15.250 -0.009 -0.001 0.006 0.000
1690 4 8.661 3.876 9.084 0.002 -0.003 0.008 -0.000
1767 4 -0.505 6.114 17.251 -0.005 -0.009 -0.008 -0.000
2087 4 7.272 -0.417 8.665 -0.012 -0.000 0.004 0.000
2088 4 5.764 1.762 20.031 -0.011 -0.003 0.007 0.000
2412 4 -0.302 5.177 14.738 0.013 -0.005 -0.006 -0.000
2452 4 7.190 -0.148 5.382 0.006 0.008 -0.004 0.000
2525 4 -0.663 3.871 19.071 0.002 0.002 -0.002 0.000
2528 4 11.536 -0.568 10.736 0.002 -0.002 0.013 -0.000
2573 4 12.316 -0.277 5.520 -0.012 0.005 -0.009 0.000
2455 4 5.750 3.860 19.958 -0.005 0.003 -0.003 0.000
163 4 4.345 8.023 7.565 0.000 -0.006 0.000 0.000
2044 4 9.176 8.782 5.137 0.007 0.011 -0.014 0.000
127 4 8.706 12.711 -0.376 -0.005 -0.000 0.000 -0.000
1732 4 9.010 9.842 13.462 -0.004 0.003 -0.011 0.000
964 4 6.516 -1.880 13.690 0.006 0.009 -0.001 0.000
1684 4 8.328 -0.059 14.323 -0.013 -0.008 0.003 0.000
2816 4 13.583 7.353 16.905 0.000 -0.005 0.002 -0.000
8769 4 4.887 5.826 9.447 0.002 0.003 -0.007 -0.000
1765 4 2.002 -0.766 17.151 -0.012 0.008 -0.004 0.000
3247 4 10.788 5.939 14.108 0.004 0.012 0.003 -0.000
9968 4 11.522 8.676 13.882 -0.012 -0.002 -0.008 0.000
1365 4 7.127 6.689 3.237 -0.004 -0.006 0.004 0.000
1217 4 0.949 3.053 4.109 -0.013 -0.005 0.001 -0.000
1725 4 4.103 -3.376 16.317 0.002 -0.003 0.002 0.000
566 4 4.858 12.066 13.388 -0.001 0.001 0.010 -0.000
4479 4 4.245 4.496 14.003 -0.002 -0.006 0.002 -0.000
9974 4 9.300 10.052 7.269 0.000 -0.003 -0.009 0.000
9565 4 1.886 9.183 15.065 -0.005 0.001 -0.004 -0.000
5758 4 2.794 13.966 3.399 -0.007 -0.005 0.010 0.000
19736 4 7.097 7.159 12.295 0.012 -0.000 0.002 -0.000
569 4 1.133 12.045 6.078 -0.002 0.004 0.004 -0.000
19682 4 8.449 8.944 2.664 0.001 -0.004 -0.006 0.000
1251 4 2.454 1.833 14.745 -0.004 -0.008 0.005 -0.000
55 4 5.771 -3.020 18.709 -0.004 -0.009 0.003 -0.000
2643 4 3.653 7.245 15.803 0.000 0.007 0.006 0.000
6480 4 4.032 -1.687 9.579 -0.005 -0.010 -0.006 0.000
1761 4 1.655 7.175 17.412 0.007 -0.005 -0.001 0.000
1653 4 2.368 -0.584 14.491 0.005 -0.001 -0.012 -0.000
1282 4 4.333 12.577 9.042 0.001 0.003 -0.003 -0.000
2124 4 5.907 2.766 14.984 -0.001 0.008 0.001 0.000
19408 4 4.152 4.015 1.284 -0.001 0.005 0.003 0.000
19284 4 6.406 3.229 12.252 -0.007 0.007 0.010 -0.000
565 4 10.696 6.717 5.294 -0.000 -0.002 -0.004 0.000
90 4 13.401 6.035 -1.405 -0.003 0.001 -0.009 -0.000
3700 4 11.864 11.265 12.887 0.019 0.004 0.003 0.000
9165 4 -1.458 12.742 18.461 0.012 -0.014 0.008 -0.000
1322 4 1.642 4.351 18.076 0.008 0.001 0.002 0.000
19298 4 0.526 -2.042 0.780 -0.006 -0.003 0.005 0.000
846 4 11.980 11.276 2.940 -0.008 -0.004 0.013 -0.000
86 4 -0.715 7.746 15.327 -0.008 -0.010 0.001 0.000
863 4 9.736 0.858 19.835 -0.004 0.002 -0.006 0.000
8763 4 -3.167 3.934 14.266 -0.008 -0.004 -0.017 -0.000
96 4 1.410 1.758 0.981 -0.004 0.015 -0.000 -0.000
5360 4 2.507 10.895 12.902 -0.002 -0.002 0.001 0.000
19490 4 0.988 8.992 3.853 -0.000 -0.006 -0.002 0.000
1731 4 -0.363 8.610 9.131 0.001 0.008 -0.001 -0.000
18603 4 8.398 0.260 2.262 -0.010 0.014 -0.013 -0.000
900 4 -0.877 -1.053 16.586 -0.001 -0.002 0.004 -0.000
2185 4 8.525 -1.053 16.642 -0.003 -0.015 0.006 0.000
2524 4 -4.925 10.628 18.669 0.006 0.003 0.004 -0.000
1252 4 6.353 9.266 12.852 0.002 -0.007 -0.006 0.000
19217 4 2.161 -0.573 10.600 -0.006 0.008 -0.002 0.000
9969 4 10.643 3.651 7.355 -0.005 -0.009 -0.006 -0.000
491 4 3.997 11.020 4.890 0.001 -0.001 -0.006 -0.000
19730 4 2.008 8.660 8.576 -0.016 -0.003 0.001 0.000
23469 4 3.180 12.562 1.469 -0.011 0.006 -0.002 0.000
19686 4 -5.609 5.769 10.086 -0.009 -0.005 0.005 0.000
490 4 5.163 10.756 0.725 0.009 -0.010 -0.010 -0.000
1729 4 14.166 9.230 14.221 0.014 -0.002 -0.006 -0.000
6315 4 12.250 9.301 15.980 0.002 -0.013 -0.000 -0.000
19282 4 3.443 -2.066 7.316 -0.007 0.004 0.007 0.000
2416 4 2.842 11.290 15.686 -0.004 -0.002 -0.003 -0.000
19406 4 2.074 -1.286 3.058 0.012 -0.001 -0.001 -0.000
85 4 1.601 8.618 0.481 0.001 0.007 -0.007 0.000
455 4 6.264 2.364 1.974 0.004 -0.000 0.004 -0.000
1380 4 -3.573 9.000 3.062 0.007 0.006 -0.007 -0.000
1386 4 8.274 8.870 10.979 -0.009 0.005 -0.012 -0.000
1363 4 8.558 -2.491 -2.894 0.000 -0.002 -0.006 0.000
4073 4 6.858 4.396 -0.086 0.010 -0.005 -0.002 -0.000
4955 4 10.935 -1.144 18.485 -0.004 0.002 -0.003 0.000
2494 4 4.601 7.329 12.891 -0.005 0.001 -0.005 -0.000
19336 4 2.711 0.449 8.284 -0.003 -0.000 -0.000 0.000
19307 4 -3.718 4.419 -1.153 0.002 -0.004 0.003 -0.000
4640 4 2.961 9.310 6.342 -0.003 -0.005 0.005 -0.000
1401 4 -0.415 10.780 12.530 -0.004 0.002 0.009 -0.000
6239 4 7.576 7.688 14.548 0.004 -0.003 0.003 -0.000
6119 4 5.445 8.147 10.823 0.005 0.007 -0.005 0.000
4874 4 4.438 -1.300 -3.243 -0.001 -0.005 0.009 -0.000
1766 4 1.709 6.498 13.650 0.004 -0.005 -0.005 -0.000
487 4 -0.415 9.339 -4.079 -0.001 -0.000 0.005 -0.000
2126 4 2.030 4.614 9.441 -0.008 -0.002 0.001 -0.000
27962 4 2.574 1.757 5.804 0.004 0.002 0.011 -0.000
1290 4 4.220 14.775 0.580 -0.004 -0.004 0.005 0.000
7474 4 4.258 9.628 11.704 0.001 -0.000 0.004 -0.000
4232 4 5.427 7.030 -1.434 0.004 -0.011 0.003 -0.000
447 4 3.407 9.486 2.401 -0.006 0.007 -0.015 -0.000
404 4 3.878 7.913 0.705 0.002 0.004 -0.005 0.000
460 4 10.728 2.181 2.666 -0.009 0.004 -0.004 0.000
23632 4 2.015 3.995 13.046 0.004 0.004 0.012 -0.000
575 4 7.066 8.946 8.722 -0.008 0.000 -0.000 -0.000
19689 4 -1.360 9.072 -0.131 0.003 -0.005 -0.003 -0.000
18858 4 8.875 8.657 -1.170 0.001 0.014 -0.004 -0.000
1369 4 7.156 4.825 17.498 0.001 -0.003 0.002 0.000
4157 4 1.711 0.044 -0.794 -0.003 0.005 -0.017 -0.000
281 4 6.584 12.777 1.136 0.004 -0.007 -0.002 0.000
3307 4 -2.359 1.502 15.684 -0.004 -0.005 0.007 -0.000
11929 4 3.496 -3.380 20.745 0.002 -0.008 -0.004 0.000
8644 4 10.884 2.522 14.143 -0.004 0.010 -0.002 -0.000
901 4 5.141 9.676 -1.794 -0.003 -0.002 0.007 0.000
526 4 6.860 5.009 13.586 0.009 -0.011 -0.001 0.000
5232 4 -2.603 12.182 11.502 -0.002 -0.001 -0.009 -0.000
18442 4 -0.947 5.207 8.777 -0.001 -0.005 -0.001 -0.000
405 4 5.175 14.941 12.633 -0.001 -0.007 -0.001 -0.000
129 4 0.989 7.359 6.040 -0.002 -0.009 0.002 -0.000
3410 4 2.028 13.789 16.090 0.006 -0.012 0.005 0.000
4995 4 4.096 2.319 12.794 -0.005 -0.006 -0.009 0.000
10374 4 0.489 0.777 9.346 0.000 -0.005 -0.005 -0.000
3405 4 3.019 13.928 13.371 0.001 0.001 -0.008 0.000
2085 4 3.402 5.116 11.469 -0.003 -0.012 -0.000 -0.000
27886 4 0.205 2.823 7.767 0.007 0.003 -0.007 0.000
4517 4 10.123 2.115 11.392 -0.009 -0.004 -0.003 0.000
5393 4 2.557 5.418 -2.714 0.001 0.007 0.007 -0.000
9124 4 1.960 5.258 15.931 -0.001 -0.006 -0.000 0.000
19405 4 7.241 10.427 6.055 -0.012 0.003 0.001 -0.000
8374 4 -2.116 6.322 -1.133 -0.008 -0.000 0.009 -0.000
2243 4 2.409 1.447 17.041 -0.012 0.003 -0.003 -0.000
1243 4 -0.308 6.573 20.281 -0.011 0.005 -0.001 0.000
10775 4 10.556 0.149 13.028 -0.003 0.007 -0.008 -0.000
12393 4 6.096 -1.612 15.894 0.004 0.007 -0.003 -0.000
2164 4 -3.262 5.442 8.336 -0.006 -0.003 -0.000 0.000
1012 4 11.580 7.578 7.273 -0.006 -0.011 0.013 0.000
1096 4 12.008 9.097 -0.760 0.003 -0.007 -0.006 -0.000
9097 4 1.590 -2.783 15.787 -0.001 -0.002 -0.002 0.000
6550 4 9.053 4.347 13.962 -0.008 0.001 0.000 0.000
27816 4 4.195 0.209 -1.908 0.007 -0.002 0.004 0.000
949 4 5.153 8.890 5.498 -0.015 -0.000 -0.010 0.000
4520 4 3.714 2.197 2.983 -0.008 0.005 -0.004 -0.000
2267 4 11.007 9.492 18.688 -0.007 -0.007 0.007 -0.000
2007 4 0.001 2.008 13.835 -0.009 -0.011 -0.009 -0.000
2498 4 11.165 5.984 8.996 0.003 0.008 -0.001 -0.000
4678 4 9.517 11.313 4.363 -0.001 -0.008 -0.005 0.000
4557 4 3.361 12.943 6.811 -0.001 0.006 -0.007 -0.000
5316 4 6.453 10.791 3.538 0.004 -0.000 -0.007 -0.000
648 4 8.406 5.049 4.654 0.009 -0.003 0.004 0.000
5631 4 1.059 -1.930 12.136 -0.005 0.008 0.003 0.000
1810 4 6.069 13.200 15.864 -0.006 0.005 0.004 0.000
9535 4 0.733 10.590 1.616 -0.001 -0.005 0.004 0.000
2860 4 10.571 6.785 -1.705 -0.000 -0.009 0.010 0.000
3260 4 11.099 3.766 16.076 -0.001 0.011 0.006 -0.000
1286 4 11.398 4.592 -0.380 -0.002 0.004 -0.009 -0.000
4040 4 -0.751 -0.825 3.043 -0.010 0.008 -0.002 -0.000
1693 4 12.413 8.546 4.195 -0.009 0.000 -0.003 0.000
496 4 3.245 7.778 4.284 -0.002 0.012 0.003 -0.000
23707 4 1.642 11.550 3.603 0.002 0.008 0.000 0.000
1220 4 8.510 4.125 11.662 -0.007 -0.003 -0.002 -0.000
1827 4 10.990 7.330 11.500 0.007 -0.002 0.008 0.000
19699 4 5.964 4.345 3.411 -0.006 -0.002 -0.003 -0.000
2215 4 5.637 6.095 1.257 -0.001 -0.010 0.007 -0.000
10684 4 1.002 5.162 7.425 -0.004 -0.008 0.003 0.000
13997 4 -3.152 8.388 14.071 -0.007 0.002 0.011 -0.000
18962 4 11.577 10.878 8.692 -0.003 0.013 -0.006 0.000
59 4 3.283 2.351 -0.915 0.016 -0.003 0.005 -0.000
2133 4 6.185 -1.270 11.196 0.000 0.011 0.007 0.000
202 4 2.831 5.955 0.306 -0.006 -0.001 0.004 -0.000
13199 4 1.157 -1.731 8.189 -0.000 0.007 0.002 0.000
5800 4 12.823 6.941 1.967 0.007 0.004 0.003 -0.000
5639 4 -4.078 -0.400 -4.488 0.008 -0.007 -0.010 0.000
844 4 7.392 1.866 10.588 -0.004 0.002 -0.001 0.000
4951 4 1.266 10.565 10.385 0.001 0.004 -0.013 -0.000
9122 4 8.034 2.366 15.814 0.001 0.004 -0.000 0.000
1004 4 9.093 6.220 0.978 0.014 -0.001 -0.000 -0.000
4074 4 10.389 6.739 3.128 0.011 0.003 -0.001 0.000
23831 4 8.400 12.627 9.488 -0.003 0.008 -0.009 -0.000
9082 4 2.414 -3.423 10.620 -0.008 -0.008 0.002 -0.000
140 4 13.585 9.766 7.440 0.001 0.008 0.010 0.000
2577 4 8.733 14.713 14.703 -0.002 -0.008 0.003 -0.000
19771 4 7.502 6.690 9.401 0.003 -0.006 -0.005 -0.000
6955 4 3.504 -2.437 18.660 -0.012 -0.013 0.004 -0.000
9924 4 -1.756 5.948 2.888 -0.004 0.012 -0.007 -0.000
641 4 3.097 10.910 -0.547 0.004 -0.002 -0.005 0.000
3365 4 9.108 5.809 6.924 0.010 -0.013 -0.006 0.000
1367 4 5.813 5.497 15.620 0.000 0.005 0.010 0.000
2168 4 5.115 -0.443 18.063 -0.001 -0.003 0.011 -0.000
1605 4 6.169 0.969 13.085 -0.002 -0.005 0.008 0.000
13152 4 -4.329 -0.394 15.270 0.002 0.001 0.010 0.000
216 4 10.690 4.116 4.768 0.012 -0.002 -0.007 0.000
8368 4 6.256 1.509 17.160 -0.002 0.001 0.011 -0.000
41 4 0.718 -2.861 18.435 -0.002 0.002 0.009 0.000
8737 4 -3.082 0.635 -2.235 0.008 -0.005 0.016 0.000
146 4 5.342 -0.247 7.670 0.002 -0.007 -0.011 0.000
445 4 4.426 2.191 7.912 0.004 -0.001 0.006 0.000
1803 4 9.916 13.032 11.778 -0.001 0.000 -0.015 -0.000
2934 4 4.112 3.214 16.605 -0.008 0.002 0.004 0.000
4552 4 5.090 10.966 7.119 -0.006 0.007 0.001 -0.000
3017 4 6.145 10.979 10.666 0.003 0.011 0.004 0.000
860 4 7.992 2.055 4.042 -0.001 0.007 0.000 0.000
175 4 4.154 10.083 9.107 0.004 -0.002 -0.002 0.000
23638 4 2.437 2.316 10.017 -0.000 -0.001 -0.003 0.000
95 4 9.227 -2.569 9.303 0.007 -0.003 0.004 0.000
8373 4 1.031 -3.135 -3.840 0.001 0.000 0.004 0.000
9972 4 6.327 5.271 11.395 -0.003 0.005 -0.005 0.000
19734 4 3.707 0.157 1.106 0.010 0.003 -0.005 -0.000
1005 4 7.602 11.572 13.091 0.001 -0.002 -0.008 -0.000
4476 4 0.219 2.930 16.321 -0.001 0.005 0.001 0.000
19724 4 -1.202 4.800 0.446 0.002 -0.010 -0.007 -0.000
928 4 10.408 8.684 9.124 -0.001 -0.003 0.004 -0.000
10334 4 -1.915 4.340 16.957 -0.003 0.004 -0.008 0.000
6067 4 -2.379 5.721 10.986 0.007 0.000 0.005 -0.000
170 4 3.497 5.892 2.540 -0.000 -0.008 -0.007 0.000
9487 4 5.324 8.179 2.739 0.008 0.004 0.005 -0.000
18861 4 -1.978 11.486 -2.987 -0.005 0.007 0.002 -0.000
1608 4 -0.946 7.498 12.982 0.002 0.007 -0.006 -0.000
19445 4 -3.461 5.759 5.148 -0.013 -0.012 -0.001 -0.000
469 4 13.643 9.381 2.038 -0.007 0.002 0.013 0.000
19645 4 -0.822 2.788 2.660 -0.001 0.002 -0.004 -0.000
1448 4 1.688 14.361 1.017 0.004 -0.003 0.003 0.000
203 4 11.303 9.725 5.875 -0.004 -0.004 -0.011 0.000
13597 4 5.516 2.303 5.171 -0.006 -0.005 -0.007 0.000
852 4 -4.240 14.853 0.896 0.005 -0.001 0.004 -0.000
19648 4 1.406 5.469 3.565 0.003 -0.008 0.001 -0.000
1801 4 8.057 13.803 5.027 -0.005 -0.008 -0.001 -0.000
7718 4 -2.244 10.810 14.544 -0.001 0.000 0.010 -0.000
13556 4 -3.788 2.802 9.462 -0.000 0.003 -0.005 0.000
13156 4 -2.183 10.826 1.551 0.019 -0.003 0.008 0.000
8682 4 -2.566 6.289 18.409 0.001 -0.008 -0.001 -0.000
8731 4 6.691 2.274 7.386 -0.001 -0.011 0.001 0.000
19483 4 3.876 10.584 -4.099 0.009 0.007 -0.001 -0.000
1406 4 3.482 3.584 20.558 0.005 -0.008 -0.007 0.000
2163 4 13.834 4.859 19.981 -0.009 0.007 -0.002 0.000
22557 4 -0.344 11.528 -0.817 0.006 0.001 0.003 0.000
27979 4 3.576 -4.327 8.180 -0.008 -0.014 -0.003 0.000
6997 4 7.887 10.707 0.972 -0.000 0.008 -0.002 -0.000
1221 4 13.286 9.366 11.981 -0.000 -0.009 -0.003 0.000
88 4 0.212 -2.973 3.475 -0.005 0.000 -0.003 -0.000
19419 4 1.282 3.821 -0.602 0.004 -0.006 -0.011 0.000
18822 4 12.459 7.693 -3.210 -0.003 -0.004 0.005 0.000
19504 4 2.941 7.716 -1.945 0.007 0.001 0.004 0.000
1807 4 6.357 7.620 16.798 -0.006 -0.005 -0.001 0.000
6152 4 2.361 13.752 -1.196 0.001 0.007 0.005 -0.000
23799 4 8.139 3.814 2.165 -0.004 -0.002 0.010 -0.000
9125 4 -0.995 5.730 5.848 0.004 0.002 0.000 -0.000
5674 4 0.713 12.763 14.252 0.003 -0.003 0.002 -0.000
18934 4 7.807 6.678 -1.863 0.002 -0.004 0.004 0.000
16297 4 -3.162 10.891 20.262 -0.004 0.006 0.003 0.000
4957 4 6.584 10.109 15.121 0.012 -0.002 0.000 -0.000
660 4 11.051 5.082 -3.442 -0.008 0.002 0.011 0.000
19613 4 13.146 2.652 -1.755 0.012 -0.003 -0.005 -0.000
6029 4 -0.154 2.618 10.884 0.006 0.006 0.005 -0.000
12360 4 -0.617 -1.704 5.280 0.002 -0.004 -0.003 -0.000
1688 4 6.573 12.351 20.256 0.009 -0.013 -0.004 -0.000
4556 4 -2.054 1.642 11.841 -0.004 0.008 0.006 -0.000
208 4 4.399 7.846 -3.739 0.005 -0.012 0.004 0.000
5838 4 8.617 10.162 20.853 0.003 -0.004 -0.002 -0.000
1011 4 -4.254 10.573 15.819 -0.010 0.004 0.009 -0.000
9921 4 0.386 0.363 6.745 0.001 0.006 -0.001 -0.000
18852 4 8.235 -0.679 -0.032 -0.004 0.005 0.001 0.000
5359 4 -1.442 3.956 12.888 -0.004 -0.007 -0.000 -0.000
1246 4 -2.251 3.521 7.025 0.002 0.004 -0.011 0.000
27963 4 0.957 0.655 4.133 -0.004 0.004 0.001 -0.000
31989 4 1.033 1.890 -2.628 0.003 0.003 -0.001 0.000
1205 4 -0.284 14.395 8.872 0.001 0.004 0.012 -0.000
19667 4 6.058 4.677 6.132 -0.015 -0.001 0.002 0.000
19304 4 6.992 3.812 -2.796 -0.000 -0.007 0.001 -0.000
214 4 7.103 7.489 5.979 -0.003 0.006 -0.009 0.000
4235 4 -1.068 0.914 0.790 0.004 -0.002 -0.003 0.000
4038 4 -4.543 6.114 13.711 0.001 -0.011 -0.000 -0.000
31200 4 1.908 3.855 1.523 0.007 -0.004 0.005 -0.000
2446 4 6.011 13.521 10.245 -0.013 -0.004 0.007 -0.000
4877 4 -3.256 14.446 -3.914 -0.001 0.004 0.004 0.000
13200 4 1.856 -1.296 -2.620 -0.012 -0.002 -0.002 0.000
894 4 7.964 -2.423 2.086 -0.006 0.001 0.006 0.000
19656 4 6.090 -0.673 1.452 0.012 0.009 -0.011 -0.000
6080 4 1.600 -0.880 19.491 0.000 -0.001 0.009 -0.000
19806 4 12.840 12.430 0.845 -0.006 0.012 0.001 -0.000
1673 4 9.741 0.799 5.444 -0.005 0.006 0.007 0.000
5476 4 -5.774 11.188 0.268 0.000 -0.004 -0.001 -0.000
6111 4 11.933 14.638 11.075 0.002 0.004 -0.000 0.000
8784 4 10.379 10.793 -0.594 -0.005 -0.004 0.001 0.000
11488 4 -3.050 2.977 19.092 -0.009 0.007 -0.012 -0.000
497 4 12.882 1.302 9.668 -0.005 0.015 0.007 -0.000
2086 4 11.261 8.563 1.617 -0.001 -0.003 0.008 0.000
6032 4 -3.997 8.730 19.678 -0.012 0.007 0.002 -0.000
4558 4 0.390 5.258 11.697 -0.004 -0.008 0.002 0.000
8326 4 -5.295 -2.931 15.194 -0.003 0.001 -0.002 -0.000
19719 4 11.609 4.710 2.149 0.001 0.012 0.018 -0.000
168 4 -1.425 14.906 10.633 -0.004 -0.004 0.010 0.000
9962 4 -2.770 -0.970 12.909 0.006 -0.001 -0.002 -0.000
2981 4 8.563 5.610 20.403 0.007 -0.005 0.007 0.000
15188 4 0.009 12.848 10.566 -0.001 -0.001 -0.006 -0.000
10368 4 6.023 -2.569 0.122 -0.003 0.001 0.005 -0.000
1727 4 3.618 6.368 18.737 -0.009 0.012 -0.003 0.000
1284 4 -4.900 5.011 16.207 -0.000 0.003 -0.012 -0.000
16449 4 8.176 10.097 17.077 0.008 -0.003 0.001 -0.000
9529 4 1.848 -1.466 5.628 0.002 -0.002 0.004 -0.000
2568 4 -0.473 1.345 18.199 0.006 -0.006 0.001 0.000
19361 4 0.607 6.188 0.954 -0.005 -0.006 0.001 0.000
6589 4 -0.214 10.081 16.673 0.007 0.014 0.001 -0.000
4592 4 -3.825 12.509 7.033 0.005 -0.002 -0.003 0.000
2532 4 11.139 -2.386 7.043 0.006 0.002 -0.005 -0.000
17606 4 -1.557 2.528 -0.928 -0.006 -0.000 0.000 0.000
9583 4 4.594 4.676 -1.112 -0.005 0.009 0.009 0.000
10762 4 1.540 0.398 12.564 0.003 0.003 0.006 -0.000
9884 4 8.407 -2.364 7.214 0.010 0.000 0.001 0.000
19662 4 11.405 1.119 -2.270 -0.008 -0.003 0.012 -0.000
19216 4 10.256 2.709 -3.164 -0.010 0.010 -0.007 -0.000
8249 4 2.950 0.671 -3.744 -0.002 -0.003 0.005 -0.000
28 4 10.657 9.112 -2.835 -0.009 0.002 -0.001 0.000
1324 4 -0.231 -1.228 14.214 -0.002 -0.013 -0.008 -0.000
10774 4 8.585 2.074 13.161 -0.007 -0.007 0.010 0.000
3256 4 6.213 9.938 19.342 -0.008 0.002 0.004 0.000
7277 4 -3.285 8.328 16.782 0.000 0.005 -0.006 -0.000
2169 4 2.114 9.875 17.468 0.001 0.007 0.005 0.000
5315 4 5.533 10.878 17.133 0.003 0.008 0.001 -0.000
6560 4 1.365 14.747 11.382 -0.004 0.007 -0.005 -0.000
5060 4 -1.501 12.074 6.393 0.004 -0.000 0.008 0.000
5 4 -2.043 1.380 9.005 -0.013 0.008 -0.007 -0.000
1044 4 -0.685 4.495 -2.410 0.001 -0.010 -0.001 0.000
4031 4 13.401 1.143 2.297 0.001 -0.012 0.005 0.000
603 4 -0.683 8.166 2.294 0.009 -0.002 -0.013 0.000
969 4 -4.709 14.536 6.121 -0.006 -0.005 -0.004 0.000
1819 4 14.017 0.699 6.861 -0.002 0.007 -0.002 0.000
9525 4 -5.418 5.630 7.061 -0.008 0.001 -0.004 -0.000
892 4 8.828 8.418 18.908 0.003 -0.007 0.008 0.000
19212 4 0.508 6.507 -1.539 -0.006 0.006 -0.005 0.000
614 4 3.047 4.834 5.336 0.001 0.011 0.006 -0.000
1330 4 11.308 4.509 12.091 -0.005 0.006 0.005 -0.000
5000 4 0.518 9.085 -1.800 -0.010 -0.005 0.004 0.000
10296 4 0.196 0.719 15.706 -0.003 0.005 -0.003 -0.000
4068 4 -0.721 6.573 -4.044 -0.000 0.002 0.001 0.000
2420 4 9.584 -1.990 5.258 0.013 0.003 -0.003 0.000
2699 4 4.087 9.335 14.796 -0.008 -0.003 -0.002 0.000
9252 4 4.326 0.158 5.212 -0.000 0.011 0.009 0.000
5036 4 6.802 8.378 0.729 -0.008 -0.004 0.004 -0.000
27924 4 12.807 -3.016 -1.305 -0.000 0.002 -0.001 -0.000
1734 4 -1.275 -1.092 18.956 0.003 0.001 -0.000 0.000
4829 4 0.062 11.643 8.576 -0.000 -0.001 -0.005 0.000
19774 4 7.547 10.699 -1.383 0.004 -0.004 -0.005 0.000
9966 4 3.872 -0.725 12.359 0.006 0.002 -0.000 0.000
9087 4 10.336 0.892 0.516 0.010 0.000 -0.009 0.000
26285 4 -1.034 3.743 -4.644 -0.002 -0.012 -0.003 -0.000
3820 4 10.661 11.591 15.808 0.004 0.005 0.002 -0.000
56 4 8.469 2.371 -4.583 0.002 0.000 0.002 0.000
3283 4 -2.758 6.168 15.718 0.001 0.007 -0.012 -0.000
1686 4 -1.242 12.327 15.697 0.007 0.001 0.007 0.000
3010 4 -1.723 8.818 18.442 0.001 0.007 0.004 -0.000
2415 4 9.924 -2.146 11.591 -0.000 -0.005 -0.005 0.000
1830 4 9.980 0.010 8.936 -0.007 -0.001 -0.003 0.000
139 4 8.448 0.111 -2.920 -0.004 0.009 0.001 -0.000
2099 4 7.984 -3.742 -0.982 -0.000 -0.010 -0.001 0.000
19818 4 12.611 14.123 2.668 0.004 0.005 0.004 0.000
2603 4 12.842 7.871 9.456 -0.002 -0.002 0.001 0.000
19608 4 -1.762 -0.693 7.726 -0.003 0.002 0.008 -0.000
6472 4 -3.095 0.418 17.612 -0.010 -0.003 -0.012 -0.000
11896 4 11.567 -3.927 17.695 -0.008 0.000 -0.002 0.000
1374 4 10.701 13.570 13.885 0.010 -0.001 -0.001 0.000
7028 4 -0.769 10.446 3.562 0.007 0.007 0.008 0.000
27566 4 -1.941 8.075 4.731 -0.004 -0.003 -0.005 -0.000
124 4 -5.805 7.794 7.865 -0.001 -0.001 -0.008 0.000
856 4 -0.713 -0.849 -1.157 0.005 -0.002 -0.014 0.000
1046 4 8.490 12.894 2.586 0.010 0.001 -0.000 -0.000
19616 4 7.006 -3.807 -4.214 -0.002 -0.009 0.000 -0.000
16218 4 9.277 2.802 21.453 0.010 -0.002 0.001 -0.000
2179 4 10.869 13.521 4.454 -0.006 0.006 0.003 -0.000
1009 4 3.692 12.620 11.268 0.009 -0.002 0.003 -0.000
7035 4 5.699 12.829 5.162 0.000 -0.012 -0.011 -0.000
4480 4 -2.121 12.348 9.036 -0.001 0.006 -0.003 0.000
2928 4 7.304 0.732 21.601 -0.005 -0.003 -0.004 -0.000
224 4 12.028 -1.083 -3.325 -0.002 -0.000 -0.012 -0.000
23478 4 -4.515 8.842 0.375 -0.003 -0.008 0.002 -0.000
2983 4 3.263 10.630 19.781 -0.001 0.001 -0.003 0.000
6993 4 3.703 12.744 17.828 -0.009 -0.003 0.005 0.000
6913 4 1.608 8.572 19.645 0.005 0.009 0.008 -0.000
3801 4 10.097 1.639 17.191 -0.015 -0.012 0.002 -0.000
1829 4 12.404 5.481 6.805 0.006 0.005 -0.005 0.000
3082 4 14.372 10.032 4.800 -0.001 -0.005 -0.003 0.000
4198 4 -2.167 7.492 7.496 -0.007 0.001 -0.002 0.000
19647 4 10.036 -0.936 -1.617 -0.006 0.007 -0.011 -0.000
19892 4 10.382 13.375 1.419 -0.003 0.002 -0.002 0.000
4195 4 -3.410 7.446 -3.708 0.002 -0.009 -0.005 -0.000
5077 4 -2.756 14.812 7.645 0.005 0.003 -0.006 0.000
983 4 10.995 11.424 20.826 0.005 0.001 0.009 -0.000
7471 4 -5.195 3.994 12.059 0.003 0.008 0.003 0.000
2093 4 10.865 -1.328 15.094 -0.001 -0.004 -0.003 0.000
5039 4 14.142 11.833 16.255 0.002 0.003 -0.002 0.000
16343 4 12.002 11.714 17.706 -0.006 0.003 0.002 -0.000
19289 4 -4.247 11.524 2.346 -0.004 0.003 -0.002 0.000
887 4 -3.386 10.875 -0.776 -0.012 -0.004 -0.010 -0.000
9123 4 7.350 -3.360 11.966 -0.004 -0.001 0.008 0.000
8652 4 -2.699 -2.133 -3.447 -0.005 -0.008 -0.010 0.000
2063 4 7.218 -2.490 20.636 -0.007 0.000 -0.003 0.000
2647 4 -4.122 1.331 13.470 -0.006 -0.000 -0.002 -0.000
2641 4 -0.173 10.548 18.991 0.006 0.003 -0.001 0.000
945 4 10.943 -0.491 3.088 -0.005 -0.005 -0.006 0.000
1337 4 8.693 -0.131 11.358 0.004 -0.012 -0.002 0.000
19763 4 -0.276 -1.176 -4.050 0.008 0.002 -0.009 0.000
3362 4 1.987 6.921 21.037 0.002 -0.008 0.007 0.000
27563 4 -4.204 -2.654 6.675 -0.001 -0.001 0.011 -0.000
3644 4 7.184 12.913 17.852 0.001 -0.002 -0.002 -0.000
22957 4 -2.976 2.740 1.174 0.008 -0.002 0.005 -0.000
2245 4 11.868 13.565 19.689 0.013 0.000 -0.009 -0.000
1692 4 -1.916 8.557 -2.207 0.003 0.008 0.004 0.000
27580 4 9.964 -2.532 0.355 0.001 -0.002 0.007 0.000
8698 4 12.577 -0.977 8.142 0.000 -0.001 0.001 -0.000
16183 4 8.548 12.316 15.213 -0.000 0.015 0.000 0.000
8362 4 4.452 -2.416 2.465 -0.001 -0.012 -0.008 -0.000
16614 4 3.408 1.161 19.664 -0.002 -0.001 0.005 -0.000
19782 4 6.929 8.742 -3.212 0.004 -0.004 -0.001 -0.000
19893 4 12.963 14.800 0.131 0.004 0.004 -0.009 0.000
1733 4 9.934 15.228 2.645 -0.003 0.008 -0.003 -0.000
3783 4 10.657 7.379 16.595 0.003 0.008 -0.001 0.000
2521 4 -4.215 2.526 16.954 0.003 0.008 0.001 0.000
3421 4 12.186 12.291 10.561 0.010 -0.001 0.001 0.000
2969 4 14.021 7.910 6.207 0.004 0.004 -0.004 0.000
9530 4 12.257 -1.775 13.398 0.007 0.005 -0.006 0.000
19697 4 6.482 11.076 -3.546 -0.009 0.002 -0.008 -0.000
2856 4 -3.053 -2.319 17.466 0.011 0.006 -0.004 -0.000
895 4 10.997 -3.539 3.984 -0.013 -0.004 -0.003 0.000
899 4 13.422 3.746 8.655 -0.009 -0.003 -0.005 0.000
23396 4 -4.080 7.761 5.669 -0.005 0.003 0.012 -0.000
2601 4 -4.433 12.979 17.605 0.002 0.003 -0.001 0.000
3895 4 4.458 13.319 20.819 0.003 0.001 -0.003 -0.000
9166 4 -2.051 -1.917 0.730 0.000 0.010 0.002 0.000
7503 4 -4.185 10.021 11.700 -0.002 0.010 -0.007 0.000
6149 4 -2.915 -2.224 14.960 -0.007 0.000 0.000 0.000
9973 4 11.635 -4.007 8.948 -0.001 -0.012 -0.001 -0.000
206 4 13.497 6.526 12.765 0.012 -0.006 -0.010 0.000
5753 4 -0.422 14.801 15.578 0.000 0.002 -0.007 -0.000
18843 4 -1.609 -0.898 10.305 0.003 -0.006 -0.013 -0.000
2531 4 9.425 5.117 17.694 -0.011 -0.006 0.002 0.000
816 4 6.370 -1.478 -1.910 -0.008 0.015 0.015 -0.000
504 4 7.873 2.399 18.932 -0.008 -0.009 -0.011 0.000
57 4 4.818 5.090 -3.424 -0.003 0.011 -0.004 0.000
5757 4 5.374 13.490 -0.816 0.002 0.004 0.008 0.000
1219 4 10.583 6.819 19.653 -0.007 0.001 0.005 -0.000
4875 4 -3.680 10.542 5.435 -0.003 -0.008 -0.003 0.000
1414 4 0.104 15.000 18.005 -0.002 -0.007 0.002 0.000
3892 4 8.952 11.621 18.908 -0.000 -0.001 0.006 -0.000
9182 4 9.054 -3.381 18.597 -0.012 0.004 -0.006 -0.000
13517 4 -3.598 1.663 4.421 -0.003 -0.008 0.008 -0.000
8681 4 -4.057 5.063 1.189 0.009 -0.001 0.002 -0.000
5712 4 -1.391 0.866 4.764 0.001 0.013 -0.001 -0.000
10282 4 -2.765 7.766 1.104 0.000 -0.012 0.014 -0.000
2670 4 13.108 13.013 14.628 -0.004 0.008 0.005 0.000
528 4 -1.549 -3.145 12.377 -0.001 0.007 -0.007 -0.000
19538 4 -0.692 14.574 -0.160 -0.002 -0.010 0.011 0.000
22600 4 -4.260 9.688 -2.610 0.001 -0.004 0.002 -0.000
6225 4 -3.970 7.851 10.152 0.004 -0.005 -0.007 -0.000
2183 4 13.681 3.194 16.733 -0.005 0.001 0.013 -0.000
4511 4 -4.093 9.674 7.888 -0.009 -0.019 -0.005 0.000
1375 4 -2.610 10.926 17.462 -0.002 0.008 -0.003 0.000
13587 4 -2.492 3.757 4.371 0.012 -0.002 -0.001 -0.000
4839 4 -3.364 -2.804 10.481 -0.000 -0.008 0.006 0.000
2042 4 9.237 -2.554 13.809 0.001 0.004 0.011 -0.000
8724 4 -5.631 6.846 1.919 0.005 -0.000 -0.004 -0.000
6552 4 2.534 14.210 8.587 -0.005 0.004 -0.000 -0.000
2020 4 9.718 -1.328 -4.390 -0.007 0.000 0.004 -0.000
46 4 -4.946 2.084 -1.732 0.005 0.017 0.007 0.000
1135 4 8.677 5.167 -4.727 -0.004 -0.001 0.005 0.000
19820 4 10.945 13.051 -1.202 0.000 -0.006 -0.003 -0.000
8004 4 4.369 15.185 -2.591 -0.002 0.012 0.005 0.000
201 4 1.018 11.236 -3.284 -0.012 0.002 0.009 0.000
2853 4 4.331 8.941 18.418 0.001 -0.002 -0.005 -0.000
2453 4 12.546 0.853 19.020 0.002 0.002 0.001 0.000
2582 4 14.290 13.595 20.206 -0.003 0.010 0.005 0.000
169 4 12.930 4.434 14.675 -0.007 -0.007 0.001 -0.000
1777 4 12.185 5.302 18.182 0.006 -0.001 0.006 0.000
3202 4 1.890 12.751 20.065 0.009 -0.013 0.003 0.000
16004 4 -3.531 -1.448 19.508 0.003 0.009 -0.009 -0.000
540 4 14.339 15.028 7.736 0.002 -0.002 0.010 0.000
18567 4 2.092 7.901 -4.374 -0.000 0.006 0.003 0.000
27950 4 13.426 4.828 0.691 0.005 0.008 0.007 -0.000
1248 4 13.062 2.630 21.623 -0.011 0.006 -0.006 -0.000
19096 4 4.098 12.569 -2.712 0.001 -0.003 0.000 0.000
6673 4 1.461 2.364 19.344 0.006 0.000 -0.001 0.000
6117 4 12.697 2.814 -4.441 0.004 -0.008 0.003 0.000
18214 4 -2.771 10.275 -4.849 0.003 -0.004 -0.002 0.000
4598 4 11.511 -3.262 20.266 -0.006 0.007 -0.004 0.000
8775 4 13.564 -2.225 2.866 -0.003 0.008 -0.010 -0.000
449 4 0.737 4.454 21.238 -0.005 -0.001 -0.004 -0.000
5839 4 -3.021 14.087 15.320 -0.001 -0.006 0.017 -0.000
18940 4 8.846 10.079 -4.476 0.005 -0.001 0.005 0.000
9568 4 -0.975 -3.954 9.699 -0.005 0.001 0.005 0.000
3271 4 10.293 3.312 19.050 0.005 0.012 0.003 0.000
3830 4 7.259 13.734 12.390 -0.005 -0.007 0.005 0.000
525 4 13.507 13.648 5.785 0.002 -0.011 0.003 0.000
2970 4 10.783 12.470 6.875 0.009 -0.005 -0.001 0.000
15 4 13.253 -2.947 5.558 0.000 0.007 0.008 0.000
18968 4 -4.339 11.716 -4.006 -0.001 0.015 -0.001 0.000
898 4 14.039 -2.463 10.315 0.008 0.005 0.002 -0.000
4999 4 -5.519 12.380 -1.718 0.007 -0.012 0.004 -0.000
6116 4 -4.301 0.044 10.936 0.010 0.002 0.007 0.000
5480 4 -4.267 14.733 10.351 0.002 0.001 0.001 0.000
13 4 -5.104 -3.433 -3.940 -0.001 -0.004 -0.002 0.000
8379 4 -2.697 -1.089 3.956 0.005 0.011 -0.003 -0.000
6476 4 6.274 7.041 19.558 0.013 -0.012 0.010 0.000
562 4 6.390 1.322 -3.434 0.002 0.003 0.005 -0.000
2201 4 -5.019 6.135 18.995 0.004 0.005 0.001 -0.000
8757 4 13.792 13.530 12.006 0.005 0.008 0.002 0.000
217 4 12.870 1.297 12.710 0.006 0.005 0.005 -0.000
18845 4 -0.854 0.953 -5.239 0.000 -0.001 0.004 0.000
49 4 8.962 7.386 -3.844 -0.005 0.001 0.003 -0.000
18661 4 6.935 13.533 -2.784 0.011 -0.010 -0.007 0.000
2697 4 9.325 14.505 19.877 0.013 0.004 -0.009 -0.000
9053 4 -1.163 -3.213 7.359 -0.006 0.009 0.006 -0.000
1260 4 3.630 2.930 -4.336 -0.002 0.007 0.006 -0.000
2419 4 -3.306 13.692 19.832 0.010 0.012 0.008 0.000
6470 4 -4.674 3.308 6.443 0.007 0.004 0.004 0.000
2066 4 13.947 -0.460 11.666 0.007 0.004 -0.001 -0.000
1092 4 -4.568 14.487 13.226 0.005 -0.003 -0.001 -0.000
12288 4 13.327 0.256 -0.811 -0.000 0.003 -0.006 0.000
5705 4 -4.505 -1.205 8.338 0.006 0.005 -0.005 0.000
1404 4 -2.671 14.804 17.716 -0.003 0.004 0.004 0.000
3089 4 -4.489 11.779 9.477 -0.002 -0.006 -0.012 0.000
11565 4 5.158 -3.784 10.983 0.006 0.009 -0.006 0.000
5706 4 13.512 7.522 19.329 0.003 -0.001 0.000 -0.000
730 4 -0.554 14.647 5.843 -0.001 0.001 0.004 0.000
8245 4 5.768 -3.072 6.907 0.001 -0.003 0.010 0.000
4478 4 -4.193 -3.480 13.094 0.003 -0.017 0.002 0.000
20276 4 -2.639 5.225 21.003 0.002 0.003 0.003 0.000
2579 4 10.389 14.178 9.338 0.003 -0.003 -0.004 -0.000
1210 4 -0.816 -3.357 -2.009 -0.002 -0.007 -0.000 0.000
23838 4 2.272 13.800 -3.660 -0.001 0.002 0.004 0.000
2095 4 11.855 5.218 21.081 -0.001 0.010 0.000 0.000
1728 4 6.436 6.687 -4.635 0.007 0.001 0.004 0.000
489 4 -3.173 0.622 2.276 -0.004 -0.005 -0.004 -0.000
19721 4 -4.992 6.488 -0.613 -0.006 0.010 -0.007 -0.000
2681 4 7.867 14.799 0.920 0.007 0.006 -0.013 -0.000
27182 4 12.874 -1.393 0.883 0.001 0.008 0.005 -0.000
2490 4 13.704 5.193 10.782 -0.004 0.006 -0.004 0.000
2287 4 12.502 14.328 17.011 0.006 -0.006 0.009 0.000
89 4 -2.957 2.598 -3.235 -0.002 0.006 0.000 0.000
19342 4 12.610 2.804 4.772 0.002 0.001 -0.003 0.000
1057 4 8.765 14.681 -1.537 0.002 0.005 -0.005 0.000
27169 4 3.105 -1.944 -0.404 -0.007 -0.004 -0.006 -0.000
1607 4 8.279 -3.707 4.179 -0.002 -0.005 -0.000 0.000
19262 4 13.157 12.648 -1.760 -0.006 0.005 0.007 0.000
9984 4 13.245 10.339 20.142 -0.010 0.004 0.002 -0.000
3085 4 4.301 -0.953 20.442 0.002 0.008 0.002 0.000
12396 4 3.953 14.982 10.450 0.006 0.005 -0.003 -0.000
5751 4 -1.511 13.669 13.214 -0.005 -0.005 -0.010 -0.000
1696 4 13.159 -1.402 19.611 -0.002 0.014 0.003 0.000
1002 4 -2.143 12.721 4.095 0.003 -0.006 -0.004 0.000
847 4 1.749 15.044 5.650 -0.008 0.005 -0.011 -0.000
932 4 13.157 5.441 4.467 0.001 0.012 0.003 0.000
2802 4 -4.747 0.803 19.599 0.009 -0.005 0.003 0.000
9344 4 4.548 -3.202 -5.065 0.009 0.003 0.006 -0.000
5237 4 -5.473 -0.967 4.149 0.004 -0.007 -0.006 0.000
3100 4 9.429 14.016 17.425 -0.001 0.007 -0.000 0.000
5473 4 5.176 13.597 2.856 0.004 0.003 -0.001 -0.000
23999 4 0.794 15.371 3.232 -0.001 0.003 -0.005 0.000