ITEM: TIMESTEP
49000
ITEM: NUMBER OF ATOMS
32000
ITEM: BOX BOUNDS pp pp pp
-5.966910 76.446910
-3.496735 73.976735
-5.884498 76.364498
ITEM: ATOMS id type x y z vx vy vz q
531 4 -1.330 8.757 -1.368 0.008 0.006 -0.007 0.000
2528 4 5.119 5.588 17.740 0.001 0.006 -0.005 -0.000
1282 4 8.120 9.936 6.711 0.012 0.003 0.005 0.000
19217 4 -0.181 4.287 7.195 -0.002 -0.010 0.002 0.000
23469 4 -2.292 5.030 3.448 -0.002 -0.012 0.001 -0.000
490 4 -3.947 5.281 10.560 0.004 -0.002 0.006 0.000
19282 4 9.157 13.114 -1.178 0.009 -0.003 0.009 0.000
3307 4 -3.886 3.469 15.219 0.012 -0.012 0.002 -0.000
648 4 3.817 10.229 19.502 0.009 0.008 -0.003 0.000
10684 4 5.836 -0.753 4.702 -0.000 -0.009 -0.001 -0.000
202 4 9.352 1.730 2.217 0.016 0.005 -0.002 0.000
844 4 13.818 11.176 2.713 0.001 0.007 -0.003 0.000
4074 4 6.283 10.660 10.786 -0.010 0.012 0.002 -0.000
3365 4 5.947 5.183 10.440 0.006 0.001 -0.003 0.000
7718 4 11.604 -1.165 8.732 -0.000 -0.004 0.005 -0.000
18934 4 11.518 3.586 -1.490 -0.010 -0.002 -0.003 0.000
6029 4 9.303 4.333 9.548 0.004 0.005 0.003 0.000
12360 4 1.664 2.846 1.039 0.003 -0.002 0.013 0.000
18852 4 11.324 7.952 3.680 -0.000 0.007 0.001 -0.000
894 4 0.435 1.134 12.163 -0.008 0.008 -0.005 -0.000
2981 4 -2.703 8.417 8.945 0.007 -0.001 0.001 -0.000
614 4 0.850 7.096 9.110 0.007 -0.004 0.002 -0.000
10296 4 -2.113 5.970 17.336 -0.002 -0.002 0.009 -0.000
4480 4 2.680 0.716 13.933 0.000 -0.003 -0.010 0.000
23396 4 3.797 12.347 17.825 -0.003 0.001 -0.002 0.000
201 4 8.644 -0.839 -1.422 0.002 -0.012 0.007 -0.000
1777 4 7.900 8.491 4.422 -0.001 -0.007 -0.000 -0.000
217 4 -2.547 8.482 11.439 0.007 0.001 -0.007 0.000
27169 4 0.395 1.954 -4.028 0.010 0.002 0.001 0.000
173 4 4.127 7.765 6.760 0.002 -0.002 0.007 0.000
539 4 6.313 6.441 5.175 -0.014 0.006 -0.006 0.000
3830 4 8.520 6.567 10.763 -0.002 0.001 -0.008 0.000
2647 4 7.011 3.271 2.413 -0.007 0.006 0.001 0.000
1364 4 10.970 6.164 11.500 0.018 0.001 0.001 0.000
8326 4 6.209 10.396 13.352 0.006 0.010 0.005 -0.000
27579 4 2.223 -0.334 10.370 -0.002 0.017 0.005 0.000
16513 4 0.927 11.697 10.702 -0.001 -0.009 0.004 -0.000
19376 4 6.668 3.479 -0.321 0.000 -0.003 0.001 0.000
2422 4 11.254 7.227 18.379 0.015 0.003 -0.001 0.000
13116 4 2.051 9.014 18.119 -0.001 0.013 -0.001 0.000
4313 4 5.225 5.426 1.010 0.001 0.008 -0.001 -0.000
7019 4 -0.430 10.588 14.435 -0.005 -0.005 -0.009 0.000
1443 4 4.199 12.632 6.591 -0.014 -0.002 -0.006 0.000
6154 4 -0.486 10.157 5.777 -0.004 -0.010 0.006 -0.000
6673 4 4.550 6.391 13.884 -0.005 0.003 -0.000 0.000
178 4 1.592 4.751 10.313 0.002 -0.014 -0.006 -0.000
1216 4 10.143 1.505 4.838 -0.005 -0.008 -0.002 0.000
5267 4 2.951 11.502 9.019 0.005 0.015 0.003 0.000
27566 4 3.188 10.310 2.419 0.005 -0.001 0.016 -0.000
18496 4 -1.819 7.901 4.813 0.004 -0.002 -0.005 -0.000
15594 4 0.479 -0.054 14.809 -0.003 -0.010 0.004 -0.000
19223 4 2.843 2.301 11.547 0.003 0.008 0.005 -0.000
3246 4 3.745 10.143 6.393 -0.000 -0.005 0.002 0.000
8682 4 8.126 11.250 4.404 0.005 -0.012 0.003 0.000
7471 4 6.581 6.871 20.240 0.005 -0.001 -0.006 0.000
16043 4 7.940 1.630 11.088 -0.001 -0.005 0.013 0.000
1643 4 -0.137 -0.023 8.044 -0.006 -0.001 -0.001 0.000
19645 4 13.376 5.249 7.781 0.005 0.009 0.012 -0.000
487 4 9.370 14.479 -3.697 0.013 -0.002 0.003 0.000
18845 4 4.337 4.825 12.040 -0.009 -0.002 0.001 0.000
19244 4 2.225 -0.059 2.639 -0.004 0.008 0.005 -0.000
23478 4 11.238 9.421 17.559 -0.008 -0.009 0.005 -0.000
19656 4 3.928 3.748 -0.943 0.005 0.002 -0.005 0.000
1276 4 7.184 5.844 3.106 0.009 0.000 -0.005 -0.000
1251 4 2.827 6.745 17.596 0.001 -0.006 0.006 0.000
2857 4 -3.183 10.611 10.006 -0.001 0.004 0.004 -0.000
2516 4 2.288 9.846 13.774 -0.000 0.001 0.005 0.000
11147 4 3.766 5.239 15.762 0.006 -0.001 0.010 0.000
2729 4 11.595 8.343 10.755 -0.001 -0.016 -0.009 0.000
3085 4 12.815 8.023 6.942 0.008 0.002 -0.006 -0.000
7474 4 -1.757 10.734 7.770 -0.004 0.007 -0.005 -0.000
150 4 -4.480 1.722 4.980 0.011 -0.006 0.006 0.000
10322 4 1.867 -1.402 12.314 0.003 -0.002 -0.001 -0.000
13513 4 2.500 4.292 18.566 0.006 -0.004 0.002 0.000
10282 4 12.387 5.298 2.936 0.002 -0.009 0.002 -0.000
2668 4 5.773 12.106 2.686 -0.005 0.001 -0.007 0.000
7787 4 1.846 6.276 3.695 -0.001 0.001 0.002 -0.000
4073 4 5.515 7.733 -2.487 0.003 0.006 -0.010 -0.000
899 4 10.581 -0.921 13.136 0.014 0.009 -0.003 0.000
18858 4 10.978 9.308 8.000 0.004 0.001 0.001 -0.000
4640 4 3.611 13.918 -2.621 -0.001 -0.001 -0.004 0.000
27962 4 13.702 7.014 4.688 -0.002 0.006 -0.000 -0.000
2531 4 5.644 5.434 -2.097 0.004 -0.002 -0.002 0.000
13958 4 -3.683 2.642 2.453 -0.003 0.012 0.000 -0.000
3468 4 2.019 6.988 14.781 0.016 -0.004 0.008 -0.000
12752 4 5.888 0.511 7.260 -0.005 -0.009 -0.010 -0.000
20276 4 12.701 1.157 9.863 -0.001 -0.002 0.002 -0.000
5709 4 9.757 6.427 1.925 0.002 0.001 0.001 -0.000
27522 4 4.481 9.166 14.202 -0.001 0.003 -0.008 0.000
2524 4 -0.888 5.794 8.565 0.002 -0.002 0.004 -0.000
4440 4 -1.119 12.241 4.006 -0.003 -0.001 -0.003 0.000
5760 4 10.795 3.953 5.013 0.001 -0.002 -0.011 -0.000
1614 4 6.439 4.424 15.459 0.000 0.008 -0.002 0.000
1291 4 5.355 0.856 12.742 0.001 -0.006 0.005 -0.000
10758 4 10.975 7.969 15.619 0.014 0.003 0.017 -0.000
14714 4 -1.718 4.575 14.662 0.010 -0.008 -0.004 -0.000
6274 4 -1.082 13.019 -2.321 -0.003 -0.003 0.000 -0.000
9685 4 3.842 8.376 4.046 -0.014 -0.006 0.005 -0.000
421 4 7.268 6.259 17.784 0.001 0.004 0.009 0.000
9137 4 10.114 5.244 7.128 -0.003 -0.009 0.007 -0.000
810 4 11.392 2.713 11.824 0.001 0.006 -0.006 0.000
41 4 8.289 7.723 6.760 0.001 -0.005 -0.002 0.000
3271 4 8.805 -0.361 9.127 -0.001 0.000 0.003 -0.000
1240 4 10.731 6.399 -0.970 0.005 -0.006 -0.005 -0.000
847 4 7.771 4.922 7.966 0.011 0.008 -0.013 0.000
27130 4 8.151 4.076 5.189 0.012 -0.008 -0.001 -0.000
19737 4 5.834 11.543 5.159 -0.010 0.005 0.004 0.000
5838 4 9.241 4.252 11.911 -0.017 -0.011 -0.000 0.000
13075 4 3.740 1.071 5.450 -0.001 -0.004 -0.010 -0.000
14716 4 9.581 -2.337 6.459 0.008 0.016 -0.010 -0.000
214 4 12.173 2.792 0.967 -0.002 -0.006 -0.002 0.000
8698 4 10.941 3.003 16.289 -0.004 -0.007 0.012 -0.000
4353 4 8.424 4.515 -1.789 0.004 -0.006 -0.005 -0.000
2909 4 12.456 -1.272 11.477 -0.001 -0.019 -0.001 -0.000
9921 4 9.382 6.299 4.750 0.003 0.004 -0.005 -0.000
10657 4 8.734 8.836 14.030 0.011 0.003 -0.002 -0.000
22878 4 1.317 8.165 0.335 0.004 0.013 -0.003 0.000
3217 4 10.025 0.214 7.018 -0.008 0.002 0.003 -0.000
19887 4 7.659 13.858 5.741 -0.008 -0.005 -0.003 0.000
4078 4 3.161 7.787 12.554 0.000 -0.003 -0.004 0.000
3010 4 9.156 2.480 -0.512 0.006 -0.007 0.004 0.000
5357 4 2.933 5.159 1.982 0.010 0.003 -0.005 0.000
2412 4 0.339 7.317 17.946 -0.008 0.001 0.002 -0.000
55 4 12.150 13.721 12.439 -0.000 -0.008 -0.000 0.000
9924 4 -1.131 6.383 0.905 -0.004 0.000 -0.006 -0.000
2108 4 11.028 4.551 18.817 0.008 0.007 -0.003 0.000
164 4 3.671 6.036 5.412 0.004 0.007 0.004 0.000
1331 4 4.180 2.748 14.314 0.007 0.003 0.002 0.000
163 4 2.278 3.843 5.432 0.000 -0.004 -0.005 0.000
27247 4 -1.109 2.417 -1.305 0.002 -0.001 -0.000 0.000
2066 4 9.166 0.377 15.252 -0.012 0.010 -0.005 -0.000
26705 4 4.596 3.790 4.167 -0.001 -0.002 -0.004 0.000
19488 4 1.101 6.806 -2.387 0.003 0.001 -0.006 -0.000
13180 4 5.245 4.962 7.308 0.000 0.002 -0.009 -0.000
13143 4 6.550 8.076 14.088 -0.003 -0.003 0.001 -0.000
5516 4 5.455 10.790 7.905 -0.000 -0.003 0.001 0.000
6063 4 -1.226 3.947 -3.480 -0.010 0.002 0.007 0.000
982 4 7.202 8.297 -4.416 0.005 -0.002 0.002 -0.000
27574 4 -2.858 0.384 -2.332 0.005 -0.005 0.013 0.000
14351 4 -3.552 0.990 13.145 -0.001 -0.006 -0.002 -0.000
4955 4 -4.110 10.425 18.603 -0.003 -0.007 0.007 -0.000
13115 4 8.957 4.017 20.510 0.008 0.003 -0.007 -0.000
20152 4 3.768 0.859 19.512 -0.001 0.001 0.001 -0.000
492 4 1.619 9.017 5.123 0.007 -0.005 0.006 0.000
11552 4 6.588 3.716 12.843 -0.001 -0.000 0.008 -0.000
9583 4 11.257 2.514 7.094 0.005 -0.002 0.006 -0.000
528 4 5.744 7.387 11.251 0.007 -0.004 0.002 0.000
19264 4 10.455 11.481 0.135 0.011 0.001 0.003 0.000
5315 4 1.986 12.411 15.481 -0.004 -0.004 -0.001 0.000
5335 4 -1.169 6.644 10.906 0.002 0.005 -0.005 -0.000
3082 4 7.313 1.346 -1.648 0.006 -0.011 -0.013 -0.000
1736 4 1.928 9.031 7.600 0.007 0.005 -0.005 -0.000
944 4 4.541 3.928 -3.635 0.003 0.001 -0.004 0.000
16209 4 -2.016 -1.179 15.691 0.005 -0.013 0.003 -0.000
18523 4 0.761 4.004 -2.097 0.013 -0.005 0.007 0.000
13916 4 -3.802 12.384 -0.381 -0.001 -0.006 -0.002 -0.000
2046 4 1.162 4.913 16.383 0.002 0.002 0.015 0.000
24378 4 2.098 9.586 9.999 -0.000 -0.001 0.004 0.000
17489 4 9.134 13.505 16.031 0.002 -0.001 0.002 0.000
5227 4 -0.692 9.204 9.911 0.001 -0.006 -0.003 -0.000
1760 4 10.135 10.135 2.424 0.007 -0.013 0.002 0.000
785 4 -2.982 8.671 -4.360 -0.013 -0.006 -0.009 0.000
6921 4 4.137 12.452 -0.097 -0.001 -0.004 -0.002 -0.000
18965 4 7.530 0.142 3.164 -0.009 -0.006 0.011 0.000
13111 4 8.724 3.732 14.939 -0.004 -0.003 0.001 0.000
3143 4 -3.325 -0.420 10.964 0.004 0.011 -0.006 -0.000
20478 4 6.711 -1.549 11.655 0.006 0.005 0.002 -0.000
4091 4 2.646 4.681 7.673 -0.001 0.008 -0.006 0.000
9097 4 3.318 15.398 8.289 -0.006 0.004 0.010 0.000
3203 4 11.923 8.557 13.183 0.004 0.007 -0.004 -0.000
5221 4 5.416 2.499 11.041 -0.002 0.009 -0.004 0.000
23506 4 -2.749 11.618 1.921 0.004 0.003 -0.010 0.000
1367 4 -0.293 4.323 17.944 0.005 0.004 0.003 0.000
2133 4 4.561 2.505 7.292 0.009 -0.000 -0.007 0.000
5676 4 3.432 12.413 3.951 0.006 0.003 0.000 0.000
14359 4 4.092 8.692 10.066 0.010 -0.002 -0.005 0.000
5757 4 7.331 1.429 0.903 -0.004 -0.009 0.000 -0.000
8644 4 10.598 0.765 11.432 0.004 0.005 0.009 -0.000
2563 4 7.989 6.375 15.158 0.000 0.009 0.000 -0.000
4829 4 -3.313 13.444 -2.809 0.002 -0.001 -0.007 -0.000
613 4 2.414 15.661 -1.519 0.005 -0.003 -0.001 -0.000
10727 4 6.597 2.184 14.566 -0.001 -0.003 -0.006 0.000
7277 4 2.520 -0.470 16.227 0.003 0.001 0.001 -0.000
2251 4 -3.423 7.916 16.962 0.003 0.008 0.003 0.000
19009 4 11.491 11.460 4.508 -0.003 0.005 -0.001 0.000
4436 4 5.768 -0.528 -0.362 -0.003 0.004 0.004 -0.000
6824 4 0.403 11.348 8.179 0.007 -0.000 0.003 0.000
580 4 10.102 13.436 8.398 -0.003 0.001 -0.002 -0.000
7878 4 -3.893 4.206 12.581 -0.002 0.010 0.009 0.000
4432 4 -2.613 0.241 2.520 0.006 0.003 -0.006 0.000
16004 4 8.257 -0.014 12.901 -0.003 -0.005 0.002 -0.000
1871 4 9.985 13.493 18.193 0.007 -0.003 -0.001 0.000
203 4 3.202 6.397 10.047 -0.013 -0.006 -0.001 0.000
16764 4 1.217 6.109 12.615 -0.005 -0.006 0.002 0.000
6067 4 7.424 6.238 12.745 -0.001 -0.000 0.002 -0.000
16208 4 9.511 10.425 15.485 -0.004 0.008 0.002 -0.000
4511 4 3.524 -0.562 -1.725 0.004 0.008 0.015 0.000
11168 4 6.383 2.217 5.007 0.001 0.004 -0.004 -0.000
11191 4 13.306 6.215 10.072 -0.004 -0.002 -0.006 0.000
1220 4 4.856 3.360 17.601 0.014 0.003 -0.004 0.000
10031 4 8.005 8.658 19.485 -0.010 -0.002 0.006 -0.000
18481 4 3.537 1.013 0.656 -0.002 -0.004 -0.008 0.000
3616 4 -3.454 6.175 14.977 -0.010 -0.012 0.002 0.000
1608 4 8.620 8.162 16.565 -0.013 0.006 0.011 -0.000
2210 4 13.323 14.695 17.062 -0.006 0.002 -0.010 -0.000
31595 4 -4.964 6.494 8.379 -0.008 -0.003 -0.000 0.000
4547 4 -1.471 6.072 13.084 -0.019 -0.011 -0.000 0.000
12393 4 11.549 4.056 9.741 0.010 0.003 0.007 0.000
1281 4 3.851 3.665 9.494 -0.008 0.002 -0.007 -0.000
2001 4 9.930 5.252 16.732 0.004 0.003 0.010 -0.000
9402 4 -0.268 0.256 3.804 0.001 -0.009 0.019 0.000
5360 4 10.338 1.903 9.321 0.008 -0.010 -0.003 0.000
19764 4 8.406 9.931 -0.329 -0.006 0.002 -0.007 0.000
23632 4 3.535 -2.106 10.140 -0.010 -0.002 0.000 0.000
88 4 -3.600 -1.947 2.761 -0.007 -0.004 0.008 0.000
1226 4 9.457 4.095 2.647 -0.004 0.009 0.009 -0.000
2867 4 6.294 -0.643 -3.142 0.008 -0.004 -0.005 -0.000
18924 4 3.134 10.112 -0.232 0.011 -0.012 -0.003 -0.000
3283 4 8.481 -1.843 14.180 0.002 0.005 -0.002 -0.000
23659 4 -1.127 9.788 0.813 0.005 -0.003 0.006 0.000
23831 4 8.343 5.496 0.552 0.006 -0.006 0.004 -0.000
6880 4 -2.491 1.719 20.039 -0.002 0.005 0.002 0.000
5852 4 1.066 12.447 -3.255 -0.002 0.008 0.002 -0.000
19307 4 -0.068 7.247 2.883 -0.001 -0.006 0.011 0.000
2407 4 1.065 6.621 6.432 0.002 -0.007 0.004 -0.000
1767 4 11.850 2.614 3.201 0.008 -0.001 -0.008 0.000
1632 4 7.340 2.281 8.778 0.006 -0.005 -0.002 -0.000
1781 4 12.556 7.208 1.380 0.012 0.012 0.000 -0.000
1701 4 5.553 14.540 -3.308 -0.000 -0.007 -0.001 0.000
16606 4 0.165 10.627 17.248 -0.000 -0.001 0.010 0.000
1284 4 7.008 0.007 17.255 0.007 0.006 0.004 -0.000
897 4 1.507 11.766 5.816 0.005 0.008 0.012 0.000
875 4 7.738 9.152 11.932 -0.002 0.005 0.003 -0.000
2209 4 11.834 10.627 14.849 0.002 -0.001 0.006 -0.000
22957 4 -1.146 3.347 1.027 0.001 0.003 0.004 0.000
13240 4 0.635 10.026 2.908 0.004 0.006 -0.002 0.000
2895 4 -2.079 14.358 11.003 -0.002 -0.004 0.004 0.000
7040 4 -1.626 12.025 18.301 0.014 0.000 0.000 0.000
7303 4 -3.226 4.893 0.935 0.002 -0.005 -0.002 -0.000
6480 4 -3.259 2.425 -0.507 -0.005 0.005 -0.000 0.000
4592 4 -2.790 12.994 8.279 0.003 -0.003 0.003 -0.000
19342 4 6.014 8.939 6.059 0.004 0.013 0.013 0.000
2514 4 8.923 2.431 7.001 0.002 -0.009 -0.002 0.000
4517 4 9.119 9.329 -3.532 0.010 0.004 -0.018 -0.000
8784 4 3.778 7.940 1.813 0.009 -0.003 0.005 -0.000
9058 4 -0.394 5.338 4.945 0.002 -0.004 -0.001 0.000
2414 4 5.558 7.110 15.910 0.013 -0.001 -0.003 -0.000
20227 4 2.325 0.950 17.731 0.005 -0.006 -0.001 0.000
206 4 6.245 10.586 18.760 0.001 0.002 0.010 0.000
19643 4 -1.947 -2.415 10.799 -0.007 -0.007 0.001 -0.000
12396 4 4.057 10.619 11.839 -0.008 0.000 -0.009 0.000
9568 4 1.491 0.041 6.749 0.010 -0.009 0.005 0.000
10361 4 3.912 -0.645 12.279 0.007 0.003 0.009 0.000
3189 4 4.792 6.376 3.115 -0.002 0.008 0.002 -0.000
4555 4 -0.454 3.518 12.466 -0.000 0.009 0.006 -0.000
10769 4 10.466 4.307 0.502 0.002 -0.001 0.000 0.000
1678 4 11.170 15.333 0.640 -0.003 0.006 0.005 -0.000
6477 4 7.907 2.387 16.941 0.004 0.001 -0.003 -0.000
2215 4 -1.644 -0.502 5.873 -0.005 0.008 -0.008 0.000
27578 4 13.299 7.862 -1.040 0.001 0.012 0.005 0.000
1135 4 0.013 1.370 1.541 0.014 -0.013 0.002 0.000
5834 4 -0.324 7.178 15.671 0.005 -0.010 0.006 0.000
27690 4 1.096 -2.694 -0.862 0.005 -0.010 0.001 0.000
42 4 0.399 2.107 16.532 0.007 0.005 0.001 0.000
641 4 -2.014 14.698 4.298 0.005 -0.006 0.010 -0.000
19814 4 3.566 6.835 -0.502 0.002 0.008 -0.007 -0.000
5686 4 8.361 9.152 9.377 0.003 -0.002 -0.003 -0.000
2218 4 12.967 13.803 4.545 -0.001 -0.010 0.008 0.000
4038 4 -4.445 2.243 18.219 -0.002 -0.001 -0.010 -0.000
125 4 11.648 0.816 -0.269 0.004 0.014 0.010 0.000
1297 4 11.366 11.947 16.835 -0.004 -0.002 0.007 -0.000
2164 4 -1.846 4.197 10.418 -0.003 0.010 -0.002 -0.000
6518 4 2.481 13.116 12.750 -0.005 -0.007 -0.011 -0.000
424 4 7.364 -2.676 4.652 -0.005 -0.001 -0.002 0.000
5789 4 1.859 3.674 13.696 -0.004 0.005 -0.001 0.000
19096 4 7.169 2.569 -5.797 -0.015 0.007 0.004 -0.000
11555 4 12.136 3.545 14.237 -0.003 0.004 0.004 -0.000
31992 4 1.909 -2.520 7.280 0.011 -0.003 -0.005 -0.000
1111 4 -0.905 12.322 -0.003 -0.010 0.006 -0.007 -0.000
1807 4 4.547 3.120 1.413 0.005 -0.000 0.004 -0.000
5877 4 11.229 9.037 -2.429 -0.010 -0.006 0.001 0.000
25895 4 5.541 10.430 0.886 -0.001 -0.007 -0.005 -0.000
20916 4 3.584 3.338 20.787 -0.002 0.002 -0.003 0.000
1658 4 6.335 7.621 8.747 0.002 0.006 -0.000 0.000
6427 4 -3.709 14.446 6.206 -0.005 0.011 -0.004 -0.000
2427 4 10.279 11.726 6.610 -0.014 -0.015 0.002 0.000
5352 4 6.615 12.797 7.848 0.002 -0.002 -0.013 0.000
27068 4 4.464 1.411 3.080 -0.003 0.002 0.003 -0.000
174 4 -4.178 7.340 6.373 0.003 -0.004 0.005 -0.000
3420 4 10.146 9.234 5.592 0.002 -0.003 0.002 0.000
900 4 -2.198 11.898 20.744 -0.011 0.001 0.006 0.000
17239 4 1.881 2.285 7.640 -0.008 -0.007 0.014 0.000
2493 4 6.811 9.967 16.017 -0.002 -0.011 -0.008 -0.000
3284 4 11.789 0.963 14.094 -0.014 0.001 -0.006 -0.000
1646 4 11.623 6.482 5.801 -0.001 0.005 0.005 -0.000
18583 4 10.199 7.125 -3.301 0.009 -0.005 -0.004 0.000
27771 4 -1.617 -2.109 -3.685 -0.002 0.004 -0.000 -0.000
5755 4 1.257 5.442 -0.133 -0.004 0.007 -0.005 0.000
18018 4 10.288 1.979 -2.481 -0.004 0.003 0.006 -0.000
19210 4 -2.854 9.605 5.900 -0.003 -0.012 -0.001 0.000
647 4 11.595 -0.622 5.183 -0.001 0.011 0.009 0.000
10730 4 10.036 2.408 18.535 -0.001 -0.000 0.005 -0.000
845 4 -0.072 0.116 20.793 0.005 -0.002 0.010 0.000
5711 4 -1.031 1.778 14.212 -0.004 0.001 -0.000 -0.000
27860 4 0.231 -1.594 16.943 0.006 -0.009 -0.003 -0.000
8725 4 9.505 2.245 13.413 -0.009 0.008 -0.000 -0.000
16140 4 4.270 9.892 16.942 0.006 -0.014 0.003 0.000
4477 4 -0.865 5.823 -2.020 0.004 0.004 -0.005 0.000
6463 4 10.399 -3.433 8.584 0.009 -0.005 -0.002 -0.000
26779 4 6.850 7.800 0.344 -0.007 -0.007 -0.005 -0.000
19734 4 1.991 1.848 -1.560 0.011 0.004 -0.006 0.000
9124 4 11.642 -3.187 4.635 -0.001 -0.009 0.002 -0.000
7272 4 5.783 8.685 3.283 -0.000 -0.013 -0.001 -0.000
5402 4 8.865 13.837 13.569 -0.010 -0.002 0.005 0.000
7021 4 -1.604 9.429 19.059 -0.003 -0.008 0.010 0.000
2449 4 4.874 1.206 16.179 -0.008 0.007 -0.002 -0.000
5712 4 9.486 -1.359 4.231 -0.001 -0.002 -0.008 0.000
526 4 10.753 6.857 8.830 -0.005 0.002 -0.008 0.000
19662 4 5.132 -0.751 1.957 0.010 -0.004 -0.000 -0.000
19052 4 12.833 7.349 -4.144 0.004 -0.007 -0.003 0.000
12326 4 8.661 1.604 -4.225 -0.005 0.004 0.000 -0.000
223 4 10.575 8.673 0.034 0.001 -0.009 -0.012 0.000
19293 4 -0.738 -0.371 10.566 -0.005 0.002 0.009 0.000
16564 4 -2.276 14.679 -4.744 0.001 -0.006 0.006 0.000
9123 4 8.163 0.420 5.548 -0.005 0.008 0.006 0.000
3739 4 7.179 3.969 18.579 -0.002 -0.014 -0.003 0.000
8370 4 -1.892 6.381 6.480 0.005 0.011 -0.001 -0.000
1124 4 -4.093 6.706 20.665 -0.000 0.004 0.002 -0.000
17003 4 -1.370 6.814 19.366 0.006 0.000 0.001 -0.000
27211 4 7.690 6.825 -1.942 0.007 0.001 0.001 -0.000
10332 4 13.153 4.929 0.140 0.011 0.003 0.003 -0.000
2339 4 11.668 10.754 -4.534 0.001 0.014 0.000 0.000
23998 4 8.370 11.318 -4.468 -0.004 0.007 0.002 0.000
13200 4 3.775 12.186 -4.818 0.009 -0.001 -0.009 -0.000
170 4 2.219 14.349 -4.493 0.004 -0.001 -0.006 0.000
7116 4 9.676 13.002 3.698 -0.006 -0.001 0.011 0.000
7320 4 2.698 2.773 16.103 0.005 0.000 -0.012 0.000
3364 4 -4.409 0.156 19.332 -0.002 -0.007 -0.001 0.000
20219 4 -3.930 13.174 19.444 -0.008 -0.014 0.003 -0.000
11529 4 -1.905 1.857 11.670 -0.000 -0.001 -0.000 -0.000
5025 4 -2.334 8.323 14.093 -0.003 0.009 -0.004 -0.000
945 4 7.830 -2.055 2.451 0.004 0.005 0.003 0.000
19923 4 0.814 10.470 -0.939 -0.003 -0.006 -0.001 0.000
3256 4 -0.239 8.304 12.851 -0.004 0.000 -0.004 0.000
769 4 7.882 8.729 1.948 0.003 0.001 -0.005 -0.000
3416 4 5.912 -0.207 20.100 0.006 -0.005 -0.002 0.000
458 4 12.792 12.779 0.287 -0.016 -0.009 -0.000 -0.000
3685 4 5.731 15.143 6.308 0.000 0.003 -0.004 0.000
602 4 10.962 14.894 5.948 0.002 0.010 -0.004 0.000
11184 4 0.877 14.068 17.200 -0.003 0.001 0.000 0.000
1217 4 0.050 1.996 5.679 -0.006 0.005 -0.002 0.000
3375 4 7.516 1.938 19.360 0.003 0.000 0.011 -0.000
1930 4 3.107 11.505 -2.287 0.006 -0.001 -0.001 0.000
6996 4 14.317 0.235 18.688 -0.004 -0.001 0.002 0.000
2401 4 -3.383 -2.298 17.938 0.005 0.010 0.006 -0.000
1098 4 0.593 2.384 9.782 0.008 0.001 -0.004 0.000
13588 4 -0.574 8.469 7.521 0.014 -0.004 -0.002 -0.000
2650 4 -4.102 13.168 14.663 0.005 0.004 0.002 0.000
2811 4 8.186 11.565 20.307 -0.007 -0.011 0.009 -0.000
3608 4 12.530 13.388 7.021 -0.001 -0.007 -0.002 -0.000
5721 4 7.402 -1.509 6.832 -0.003 0.008 0.005 -0.000
3003 4 1.775 -0.885 19.047 0.004 -0.007 -0.002 -0.000
12013 4 -1.526 10.695 -3.169 -0.003 0.001 0.013 -0.000
7781 4 -4.909 5.538 17.602 0.006 -0.006 0.009 -0.000
31474 4 -3.155 2.612 -3.288 -0.001 0.002 -0.001 0.000
12916 4 0.217 -0.243 -2.456 0.010 0.005 0.008 0.000
168 4 8.260 11.705 1.659 -0.004 0.004 -0.005 0.000
46 4 -3.164 4.408 8.078 -0.000 0.005 0.007 0.000
7393 4 -3.300 4.276 18.758 -0.006 -0.002 0.003 0.000
3278 4 9.958 9.733 11.943 0.010 0.006 -0.003 -0.000
3064 4 8.975 13.844 1.316 -0.009 -0.008 0.005 0.000
9884 4 -1.361 11.173 12.006 0.002 0.008 -0.002 0.000
2678 4 5.327 12.538 12.311 -0.010 -0.002 -0.003 -0.000
1096 4 13.172 9.376 5.102 0.002 -0.002 0.017 -0.000
19253 4 -2.970 7.489 -0.356 0.012 0.007 0.005 -0.000
3202 4 -4.231 9.778 21.095 -0.010 0.004 0.006 -0.000
10763 4 -5.298 1.151 -2.361 0.011 -0.003 -0.003 -0.000
7065 4 -3.846 13.225 3.618 0.002 -0.003 0.001 0.000
12796 4 5.878 -2.646 16.708 0.008 -0.004 0.003 -0.000
655 4 12.721 10.811 7.110 0.001 0.001 -0.004 -0.000
172 4 2.020 4.737 -4.510 -0.005 -0.006 0.001 0.000
1667 4 13.226 6.182 14.119 -0.001 0.005 -0.003 -0.000
18969 4 11.195 14.111 -1.762 0.001 0.004 0.007 0.000
20563 4 10.655 8.418 20.413 -0.011 -0.004 0.005 -0.000
1060 4 10.319 11.556 -2.415 0.006 -0.003 -0.001 0.000
5000 4 1.921 13.036 7.709 0.004 0.020 -0.005 -0.000
6876 4 -5.456 12.229 7.155 -0.005 0.009 -0.002 0.000
2006 4 4.704 11.635 15.220 -0.005 0.001 0.016 0.000
3727 4 10.492 1.337 20.778 -0.010 -0.000 -0.002 -0.000
15584 4 -4.761 -0.299 16.864 -0.010 0.002 0.006 0.000
18820 4 3.323 -1.628 4.035 -0.002 0.012 0.001 -0.000
23630 4 1.430 2.521 3.755 0.005 -0.006 -0.003 0.000
1169 4 9.040 6.724 -5.539 0.003 -0.010 -0.004 -0.000
18447 4 4.876 1.821 -1.369 0.010 -0.004 -0.005 0.000
689 4 5.289 6.757 -4.852 -0.001 0.003 -0.006 -0.000
31430 4 -3.079 4.890 -1.608 -0.001 0.004 -0.004 -0.000
29660 4 -1.861 9.985 16.455 -0.005 0.006 0.003 0.000
251 4 11.536 3.222 -4.140 -0.000 -0.002 -0.004 0.000
4817 4 -2.731 0.891 9.176 0.003 0.009 -0.002 -0.000
1764 4 10.062 12.837 10.898 0.008 -0.011 0.004 -0.000
4235 4 6.868 3.215 -3.073 0.006 0.005 -0.007 -0.000
13472 4 -2.323 3.901 5.973 0.014 -0.000 -0.008 -0.000
6158 4 4.407 -1.422 7.013 0.003 0.005 0.008 0.000
4995 4 8.314 11.491 12.406 0.007 0.001 0.000 -0.000
17820 4 6.072 11.576 -4.448 -0.000 -0.001 -0.001 -0.000
1009 4 13.240 15.396 -0.149 0.011 -0.004 0.000 0.000
804 4 -2.355 -1.466 8.302 0.002 -0.003 -0.004 0.000
3286 4 9.207 6.411 18.911 -0.004 -0.006 -0.011 0.000
7151 4 -1.435 2.445 8.163 0.003 0.009 -0.002 0.000
23618 4 -5.185 7.605 -4.070 -0.003 0.009 0.009 -0.000
7239 4 10.492 12.201 13.665 0.006 -0.009 -0.005 0.000
8700 4 13.387 4.792 5.650 -0.003 0.008 0.009 -0.000
2830 4 13.769 -2.046 9.156 0.007 -0.001 0.008 -0.000
1669 4 11.520 0.253 2.475 -0.003 0.006 0.007 0.000
13038 4 -3.858 -1.078 4.952 0.002 -0.002 0.004 0.000
2458 4 9.320 -0.181 18.980 -0.007 -0.005 -0.006 -0.000
5273 4 -3.511 3.388 -5.846 -0.003 0.011 -0.006 0.000
8681 4 -3.338 -2.854 6.145 -0.008 0.007 0.010 0.000
11689 4 -1.522 -0.335 12.931 -0.002 0.003 0.005 -0.000
6820 4 -1.630 13.171 13.976 0.002 -0.001 -0.003 0.000
16646 4 1.565 10.975 20.402 0.007 -0.007 -0.004 0.000
15011 4 -2.084 1.637 16.793 0.011 -0.006 -0.008 -0.000
23626 4 -4.640 6.545 4.012 0.010 0.011 0.001 -0.000
5065 4 -3.997 11.933 12.207 -0.000 -0.001 0.009 -0.000
1900 4 6.962 5.261 -4.847 -0.007 0.003 0.008 -0.000
21718 4 0.050 5.997 -4.386 -0.013 -0.003 0.000 0.000
9486 4 -0.953 12.573 16.015 -0.001 -0.005 -0.015 0.000
2462 4 0.750 2.045 19.675 -0.007 0.004 -0.003 0.000
1386 4 6.322 10.086 -1.520 0.007 0.011 -0.000 -0.000
20800 4 -3.946 10.286 14.936 0.010 0.010 0.012 0.000
575 4 -1.121 2.695 3.398 -0.003 0.010 0.002 0.000
12387 4 -2.328 8.394 2.111 -0.011 0.010 -0.004 0.000
5068 4 8.032 15.234 17.654 -0.001 0.011 -0.010 0.000
5959 4 8.348 11.330 8.691 -0.002 -0.006 -0.004 -0.000
1293 4 -2.367 14.397 -0.840 -0.008 -0.007 -0.006 -0.000
1692 4 -2.377 6.035 -4.425 0.001 -0.000 0.005 -0.000
19686 4 -4.653 11.333 4.838 0.005 -0.009 0.003 -0.000
6840 4 4.801 -0.795 17.628 -0.002 0.007 0.005 -0.000
18907 4 9.146 -0.512 1.069 0.007 -0.006 0.000 0.000
4168 4 1.736 15.079 10.459 0.003 -0.005 -0.000 -0.000
11139 4 13.139 4.229 11.785 -0.002 0.003 -0.006 0.000
13178 4 -4.491 14.436 0.963 0.009 -0.002 -0.001 -0.000
4601 4 13.000 1.479 5.343 0.004 -0.002 -0.002 -0.000
9126 4 13.374 -1.454 15.853 0.003 -0.002 -0.006 -0.000
2613 4 -0.670 13.821 19.755 -0.001 0.002 -0.001 0.000
22958 4 13.077 -1.174 0.693 0.007 0.002 0.006 0.000
24233 4 11.251 0.662 16.888 0.000 0.003 0.002 -0.000
591 4 14.060 3.366 2.579 0.013 0.002 -0.000 0.000
1727 4 8.874 10.859 17.895 0.006 0.000 0.001 -0.000
962 4 2.488 13.933 1.514 -0.004 0.014 0.004 -0.000
19701 4 13.743 3.087 -2.546 -0.003 -0.001 0.005 -0.000
2118 4 4.196 -2.113 19.608 -0.005 0.007 0.010 0.000
14878 4 -5.646 2.251 12.949 0.001 0.004 -0.000 -0.000
7360 4 -3.863 12.575 17.160 -0.000 -0.001 -0.005 -0.000
5023 4 5.149 14.023 9.337 -0.008 -0.002 -0.012 -0.000
13158 4 -5.447 -2.653 11.742 -0.006 0.008 -0.003 0.000
7346 4 -4.717 14.377 11.844 0.004 -0.004 0.009 0.000
3016 4 0.746 12.149 18.391 0.006 -0.002 -0.008 0.000
5183 4 4.623 9.489 -4.292 -0.002 -0.006 -0.004 -0.000
1333 4 1.707 -0.488 -0.093 -0.003 0.008 0.009 0.000
2451 4 9.482 -1.724 21.315 -0.005 -0.000 -0.007 -0.000
3825 4 12.886 4.823 16.604 -0.017 -0.003 0.018 -0.000
216 4 13.125 10.408 0.322 -0.002 -0.001 0.003 0.000
6956 4 -4.680 9.330 12.649 0.000 0.008 0.003 0.000
16170 4 5.545 12.639 19.959 0.001 0.002 -0.005 0.000
11506 4 10.296 5.328 14.023 -0.005 -0.003 0.002 -0.000
1770 4 3.617 14.330 15.268 0.002 0.018 0.002 -0.000
1973 4 0.152 14.537 14.665 -0.001 0.003 -0.003 -0.000
123 4 0.687 12.139 2.121 -0.002 0.011 -0.004 0.000
1406 4 8.729 -2.444 17.001 0.012 -0.002 0.001 0.000
22747 4 -1.987 14.222 1.798 0.005 0.004 -0.006 -0.000
335 4 11.738 13.094 -4.123 0.005 0.003 0.008 0.000
1366 4 -4.073 15.319 8.695 0.007 -0.002 0.003 -0.000
30731 4 -1.260 -2.112 3.983 0.008 -0.005 -0.003 0.000
18565 4 -1.229 12.344 -4.945 0.005 -0.005 0.005 0.000
852 4 -4.373 4.806 -4.221 0.005 -0.003 -0.009 0.000
20001 4 13.519 7.318 17.930 0.013 0.001 -0.007 0.000
16073 4 13.577 2.636 20.120 0.002 0.008 -0.001 0.000
2666 4 1.286 7.744 20.469 -0.000 0.003 0.004 0.000
19690 4 -3.658 12.400 -4.942 0.007 0.006 -0.001 0.000
177 4 11.703 13.375 2.424 -0.002 -0.007 -0.006 0.000
208 4 1.442 10.367 -5.013 0.013 -0.005 -0.005 0.000
10740 4 12.413 0.982 -3.130 0.006 -0.004 0.008 -0.000
9564 4 -3.965 9.727 0.665 -0.004 -0.000 -0.001 0.000
27979 4 -2.859 -1.010 0.253 -0.002 0.011 0.012 0.000
2185 4 13.776 5.373 19.412 0.002 0.010 -0.007 0.000
13079 4 -3.672 0.433 7.049 0.000 0.005 -0.006 0.000
1612 4 12.427 5.240 -3.137 0.001 -0.004 -0.003 0.000
139 4 14.563 0.955 0.224 0.006 -0.006 0.006 0.000
28397 4 -0.555 -2.020 19.213 0.003 -0.001 -0.006 -0.000
923 4 0.994 15.222 7.380 -0.014 0.011 0.003 0.000
2243 4 13.280 7.394 20.628 -0.001 0.015 0.001 -0.000
5874 4 7.365 11.897 14.636 -0.004 -0.012 0.009 -0.000
13194 4 4.059 14.641 11.585 0.003 -0.004 0.002 -0.000
23778 4 -4.507 9.579 7.997 -0.001 -0.001 0.007 -0.000
493 4 9.095 4.217 -4.399 -0.001 0.003 -0.003 -0.000
2977 4 13.700 0.799 16.080 0.007 0.000 0.002 -0.000
7918 4 -0.119 9.908 21.437 0.003 0.002 0.009 0.000
7252 4 12.270 11.555 9.135 0.008 -0.007 -0.005 -0.000
2183 4 11.915 14.074 20.186 -0.001 -0.004 0.002 -0.000
25018 4 7.790 -1.999 19.552 0.004 -0.001 -0.001 0.000
7519 4 -0.625 0.359 18.310 0.003 -0.005 0.004 0.000
5381 4 -4.237 -1.853 -3.346 0.010 -0.004 -0.002 -0.000
2689 4 -4.776 2.385 10.695 -0.002 0.004 -0.001 0.000
6861 4 -2.477 14.603 15.720 0.005 -0.005 0.011 0.000
30201 4 6.314 -0.508 14.631 -0.003 0.007 -0.000 -0.000
11454 4 1.392 13.052 -0.516 -0.008 -0.002 -0.006 0.000
11940 4 12.439 -1.622 -2.823 0.002 -0.002 0.002 -0.000
6550 4 11.426 -2.364 2.376 0.003 -0.011 0.002 0.000
6117 4 10.695 -1.905 15.735 -0.004 -0.001 0.002 0.000
1062 4 -0.254 13.647 9.317 -0.006 -0.004 0.005 -0.000
608 4 9.820 -2.004 -3.970 -0.013 0.003 -0.000 -0.000
13477 4 3.057 -2.351 1.184 0.003 -0.001 0.006 0.000
17364 4 -3.788 9.877 -1.885 0.004 0.008 -0.001 -0.000
1461 4 6.608 14.286 -0.909 0.012 0.002 -0.001 0.000
2368 4 6.721 12.680 17.302 0.002 -0.011 0.004 0.000
12635 4 3.910 -2.031 15.438 0.002 -0.006 -0.005 -0.000
1448 4 -4.719 7.266 1.359 0.002 0.001 -0.017 -0.000
14331 4 12.529 2.558 18.015 -0.011 0.000 0.002 -0.000
5359 4 12.770 11.689 19.506 -0.000 0.007 0.011 -0.000
23635 4 6.436 14.808 12.731 -0.001 0.003 -0.000 -0.000
8421 4 -5.256 7.978 10.463 0.004 0.006 0.009 0.000
2168 4 5.401 7.864 18.357 -0.005 0.000 -0.004 0.000
2705 4 7.183 12.967 10.548 -0.003 0.003 0.005 -0.000
7075 4 -2.469 -0.966 20.417 0.005 -0.001 -0.008 0.000
5677 4 10.574 9.120 -5.800 0.003 -0.004 -0.000 0.000
3683 4 11.566 5.839 20.920 0.007 0.001 -0.012 0.000
6239 4 13.348 13.044 14.395 0.005 -0.000 -0.010 0.000
9962 4 3.055 -3.048 17.331 0.005 -0.003 0.003 -0.000
13921 4 14.021 1.140 3.184 -0.001 -0.013 -0.001 0.000
521 4 -0.901 13.531 6.713 -0.006 -0.003 0.004 0.000
8714 4 13.455 4.181 -5.850 -0.001 -0.008 0.001 0.000
5540 4 -4.822 15.198 -1.472 0.013 0.005 -0.003 -0.000
566 4 5.376 14.292 18.220 -0.011 -0.008 0.000 0.000
19309 4 2.527 0.013 -3.957 -0.002 0.004 -0.007 0.000
27924 4 13.714 -1.237 4.114 0.001 0.004 0.011 0.000
21312 4 -4.649 4.969 6.031 -0.010 -0.015 -0.003 0.000
9735 4 12.333 0.275 20.339 0.004 0.005 0.006 -0.000
3702 4 4.233 5.439 20.082 0.004 0.004 0.008 0.000
447 4 5.056 1.214 -4.039 -0.018 0.004 0.010 0.000
1634 4 12.842 -0.040 7.461 -0.007 -0.002 -0.002 -0.000
9532 4 -0.417 -1.326 1.104 -0.003 -0.007 0.004 0.000
2145 4 10.365 10.881 20.243 -0.002 -0.006 -0.000 -0.000
9131 4 13.864 -0.458 13.343 -0.009 -0.002 0.008 -0.000
11052 4 -5.169 -2.269 8.419 0.001 -0.003 -0.008 0.000
20240 4 -4.538 -2.953 19.657 -0.003 -0.003 -0.002 -0.000
3435 4 -1.845 15.885 7.128 0.001 0.010 -0.009 -0.000
938 4 12.123 -3.353 10.333 -0.002 0.004 -0.006 -0.000
19205 4 -4.825 12.905 9.534 -0.007 0.000 0.008 0.000
12386 4 0.869 -2.272 2.854 0.007 -0.003 0.003 -0.000
13479 4 -4.550 0.299 -4.501 -0.004 -0.001 0.010 0.000
3264 4 12.620 13.970 9.551 -0.005 -0.006 0.014 -0.000
13152 4 -4.222 6.344 12.863 -0.002 0.003 -0.010 0.000
4479 4 0.551 14.714 4.992 -0.002 0.006 -0.003 0.000
445 4 5.865 -2.444 -1.867 0.008 0.006 -0.010 -0.000
20990 4 -0.987 3.836 20.426 0.001 0.006 -0.008 -0.000
3039 4 14.319 1.920 13.234 0.005 0.002 0.003 -0.000
811 4 -4.829 -1.018 13.728 -0.000 0.003 -0.003 -0.000
8297 4 0.004 3.744 -5.707 -0.008 -0.000 0.006 -0.000
2663 4 11.371 14.393 14.829 -0.003 -0.002 -0.003 0.000
1750 4 13.199 9.025 15.329 0.001 -0.001 0.009 -0.000
11573 4 13.938 9.531 8.898 0.002 0.006 0.001 0.000
1696 4 14.129 9.122 19.461 0.000 -0.003 0.003 -0.000
9933 4 -4.993 11.791 2.186 0.004 0.002 -0.005 -0.000
8692 4 3.298 -2.270 -3.208 0.003 -0.011 0.010 0.000