ITEM: TIMESTEP
63000
ITEM: NUMBER OF ATOMS
32000
ITEM: BOX BOUNDS pp pp pp
-5.073308 75.553308
-3.363092 73.843092
-6.914527 77.394527
ITEM: ATOMS id type x y z vx vy vz q
2528 4 4.035 6.244 15.839 -0.004 -0.004 -0.000 0.000
3365 4 8.670 3.921 -2.473 0.015 -0.007 0.007 0.000
614 4 8.078 8.012 2.611 0.000 0.006 0.009 0.000
1777 4 10.868 -0.956 10.939 0.006 0.006 0.008 0.000
217 4 -3.070 8.688 9.263 0.001 0.003 0.004 0.000
3830 4 7.065 12.287 14.196 0.001 -0.009 0.006 -0.000
6154 4 4.173 4.578 -0.493 0.001 -0.000 0.003 -0.000
178 4 -3.166 10.660 5.011 -0.002 0.005 0.005 -0.000
3246 4 3.910 1.943 8.842 -0.003 -0.001 -0.002 0.000
150 4 1.468 3.406 -0.074 -0.014 -0.000 0.006 -0.000
18858 4 7.946 12.233 17.575 0.000 0.009 -0.001 0.000
1291 4 -2.459 5.693 4.100 -0.004 -0.007 -0.001 0.000
41 4 3.551 12.722 -0.793 0.004 -0.008 0.003 -0.000
19737 4 7.752 9.686 0.679 0.001 -0.012 -0.007 0.000
14716 4 6.424 3.875 -5.424 -0.005 -0.001 -0.010 -0.000
9924 4 -0.589 9.572 -2.541 -0.007 -0.004 0.003 -0.000
27247 4 9.066 -0.044 0.434 0.015 -0.008 0.011 0.000
13180 4 8.726 0.737 -2.320 -0.016 0.004 0.005 0.000
27574 4 -1.563 -0.929 -1.450 -0.000 -0.003 -0.000 -0.000
11552 4 0.135 6.746 -2.593 -0.006 0.007 0.005 -0.000
9583 4 10.799 11.284 0.261 0.006 0.004 0.008 -0.000
528 4 11.552 5.844 10.760 -0.003 0.004 0.002 -0.000
5335 4 2.150 7.481 17.477 -0.006 -0.005 -0.003 -0.000
16209 4 7.997 11.778 5.325 -0.011 -0.007 0.008 -0.000
2046 4 4.538 4.599 11.329 -0.003 0.002 -0.005 -0.000
5227 4 -2.299 5.262 15.064 0.003 -0.011 -0.000 -0.000
5221 4 4.770 2.413 11.159 -0.006 -0.002 0.003 0.000
5676 4 -2.069 9.622 6.894 0.002 0.002 0.000 -0.000
2563 4 6.178 3.241 14.900 0.002 0.009 -0.001 -0.000
203 4 3.288 8.637 1.266 0.007 -0.004 -0.006 -0.000
6067 4 7.811 6.676 -3.519 0.001 0.002 -0.003 0.000
11168 4 2.547 13.385 6.650 0.001 -0.008 0.015 0.000
3616 4 4.297 -0.748 19.787 0.002 -0.002 -0.004 0.000
4547 4 0.299 5.767 10.317 0.002 -0.001 -0.005 0.000
19307 4 12.406 7.427 2.058 -0.006 -0.005 -0.005 -0.000
2414 4 -0.484 8.163 2.715 0.003 0.001 -0.000 0.000
20227 4 3.724 6.649 13.000 -0.004 0.006 0.008 0.000
19643 4 4.820 6.371 -2.995 0.009 0.006 -0.006 -0.000
12396 4 -1.006 0.371 4.098 0.008 -0.005 -0.007 0.000
9568 4 0.502 -0.859 8.814 0.001 -0.002 -0.001 -0.000
10361 4 5.362 5.637 4.262 0.000 0.002 -0.009 0.000
4555 4 -2.603 9.766 13.000 0.006 -0.000 0.005 -0.000
6477 4 5.810 -0.140 10.139 -0.007 -0.008 0.005 -0.000
2215 4 0.304 4.526 -2.317 0.009 0.004 0.001 -0.000
5686 4 1.747 8.427 15.017 -0.001 0.000 0.002 0.000
27068 4 2.133 -1.801 2.268 -0.001 -0.000 0.000 0.000
2493 4 0.285 3.646 12.219 0.003 0.014 -0.007 0.000
1646 4 -2.872 6.995 1.899 0.007 -0.004 -0.004 0.000
8725 4 0.876 1.738 7.804 -0.005 0.007 -0.002 -0.000
4477 4 2.170 6.046 -1.648 0.010 -0.002 -0.002 0.000
19662 4 5.318 -0.018 -0.200 0.005 0.015 0.003 0.000
3739 4 0.158 3.460 9.252 -0.001 0.018 -0.012 -0.000
8370 4 9.269 8.621 -3.632 -0.007 -0.010 0.006 0.000
769 4 10.945 6.895 0.076 0.008 0.003 0.000 -0.000
1098 4 6.893 3.790 12.288 -0.008 -0.015 -0.005 -0.000
31474 4 2.532 1.351 1.384 0.001 0.006 -0.008 0.000
3064 4 5.503 5.972 -5.287 -0.008 0.008 -0.003 -0.000
2678 4 -0.835 8.612 11.189 -0.008 -0.010 0.004 0.000
18820 4 1.606 5.111 3.785 -0.006 0.013 -0.000 -0.000
4995 4 7.617 5.917 3.413 -0.008 0.013 0.004 0.000
7239 4 -2.687 8.464 4.046 -0.002 0.013 -0.004 0.000
5959 4 -0.730 7.478 5.503 0.000 -0.007 -0.002 0.000
22747 4 6.158 7.562 16.136 0.004 -0.012 0.002 0.000
852 4 4.221 10.963 10.473 0.002 -0.004 -0.004 0.000
5874 4 2.033 7.654 10.358 -0.009 -0.006 -0.007 0.000
14331 4 5.269 0.183 -2.871 0.004 -0.007 0.003 0.000
2705 4 2.523 8.841 7.921 -0.015 0.003 -0.003 -0.000
9361 4 1.478 10.735 -0.749 -0.001 -0.009 0.002 0.000
7604 4 8.931 2.652 12.228 -0.001 -0.010 -0.001 -0.000
10081 4 -2.314 10.953 10.066 -0.008 -0.009 -0.007 0.000
1408 4 6.099 5.746 9.787 -0.011 -0.006 -0.006 -0.000
19691 4 13.305 4.279 4.286 0.004 0.003 0.016 0.000
3452 4 -1.767 6.812 8.972 -0.013 0.005 -0.004 -0.000
9124 4 13.748 1.259 -1.496 0.001 0.001 -0.004 0.000
11231 4 2.701 8.861 12.478 0.005 -0.010 0.013 -0.000
19007 4 0.919 13.227 -0.027 0.007 -0.001 -0.004 0.000
725 4 1.379 12.628 -2.009 -0.001 -0.001 0.004 0.000
2511 4 -2.654 3.572 12.884 0.005 -0.001 -0.004 -0.000
23835 4 4.890 9.692 3.103 -0.008 0.000 -0.013 -0.000
18607 4 3.035 6.693 6.693 -0.004 -0.008 0.007 -0.000
11146 4 7.722 6.470 17.687 0.001 -0.013 -0.003 0.000
6039 4 3.293 10.490 14.006 0.011 -0.009 -0.010 0.000
31595 4 4.581 8.275 5.095 -0.002 0.017 0.008 0.000
9936 4 0.928 5.425 6.054 0.008 0.005 0.009 0.000
9137 4 5.145 4.253 -3.073 0.005 -0.004 0.010 -0.000
9534 4 0.789 8.237 -0.158 -0.002 -0.003 -0.000 0.000
9474 4 5.152 2.656 0.886 -0.001 0.006 -0.004 -0.000
19490 4 10.966 5.817 14.815 0.001 0.008 -0.001 -0.000
6913 4 14.079 5.799 9.547 0.006 -0.009 0.001 0.000
6754 4 9.493 11.097 7.667 0.005 0.010 -0.004 -0.000
2168 4 8.758 1.884 15.210 0.002 0.001 -0.012 0.000
18852 4 6.873 0.752 2.331 -0.003 0.001 -0.004 0.000
9974 4 7.222 1.328 -0.317 -0.002 -0.000 0.004 -0.000
5783 4 0.306 0.257 6.045 -0.013 0.005 0.001 0.000
247 4 -0.887 13.535 1.777 0.012 -0.010 -0.003 -0.000
25169 4 0.647 3.370 2.354 -0.009 -0.009 0.003 -0.000
1297 4 5.627 5.840 6.769 0.004 -0.006 -0.003 0.000
6880 4 10.129 8.645 8.562 -0.002 0.010 -0.000 -0.000
844 4 11.377 10.200 -2.590 -0.002 -0.002 -0.001 0.000
5838 4 4.926 2.436 -1.547 0.002 0.002 0.005 0.000
13178 4 -2.500 10.412 2.677 0.015 0.002 -0.006 -0.000
10782 4 11.580 7.426 -2.760 -0.006 -0.013 0.007 0.000
214 4 4.372 9.875 8.505 -0.001 -0.001 0.003 -0.000
923 4 6.211 10.392 -5.083 0.003 -0.011 0.003 -0.000
18847 4 5.645 13.142 -1.547 -0.009 -0.014 -0.000 0.000
2681 4 13.068 10.220 4.272 0.006 0.004 -0.000 -0.000
19223 4 3.806 4.458 5.578 -0.000 -0.009 -0.004 0.000
2066 4 -0.618 5.565 12.811 -0.000 -0.005 0.006 0.000
15436 4 6.873 11.533 7.618 0.007 0.010 -0.002 0.000
2006 4 -1.329 10.134 15.217 0.001 -0.011 0.002 0.000
8374 4 2.752 -1.393 -2.969 -0.005 0.003 -0.011 -0.000
23675 4 11.495 1.963 5.296 -0.008 -0.002 0.004 -0.000
1161 4 5.811 7.697 8.265 -0.004 0.003 -0.000 0.000
13194 4 13.917 8.070 11.534 -0.004 0.003 0.004 0.000
321 4 2.703 8.101 -6.313 -0.004 -0.004 -0.005 -0.000
9192 4 8.584 1.611 7.104 0.006 -0.002 0.004 -0.000
526 4 11.972 13.441 0.330 -0.005 -0.010 -0.002 0.000
23632 4 6.078 -0.704 14.454 -0.007 0.000 -0.004 -0.000
5473 4 -2.949 8.160 15.947 -0.004 -0.003 0.004 -0.000
2427 4 11.748 8.899 -5.028 -0.000 -0.006 -0.002 -0.000
4946 4 2.073 12.540 2.548 -0.008 -0.004 -0.007 0.000
2064 4 0.321 0.888 1.995 0.000 0.002 0.004 0.000
1839 4 12.979 5.199 7.082 0.001 0.002 0.007 0.000
6238 4 10.384 10.326 12.336 0.005 0.002 -0.006 0.000
404 4 -1.468 7.781 -0.974 -0.000 -0.000 -0.003 0.000
12715 4 12.634 6.736 -5.435 -0.006 0.004 0.010 -0.000
23631 4 1.475 6.248 1.492 0.005 0.004 -0.014 -0.000
9814 4 7.765 0.780 4.781 0.004 0.004 0.000 0.000
2010 4 -0.659 11.316 13.091 -0.003 0.006 0.005 0.000
2932 4 6.177 7.937 -0.088 -0.005 -0.005 0.012 -0.000
6594 4 9.180 8.365 4.746 0.000 -0.009 0.007 -0.000
899 4 2.350 8.367 -1.930 0.002 0.007 0.006 0.000
8698 4 4.327 12.320 14.673 -0.002 -0.006 0.004 -0.000
25166 4 6.089 8.883 -2.543 -0.015 0.004 -0.007 -0.000
22440 4 -0.375 -2.166 2.538 0.004 0.006 0.008 0.000
1612 4 8.296 6.664 0.934 -0.013 0.004 0.008 0.000
5352 4 2.848 1.149 12.175 0.004 -0.003 0.001 -0.000
4518 4 4.913 4.083 8.527 0.017 0.001 -0.000 -0.000
3854 4 8.077 14.608 16.046 -0.005 -0.001 0.003 -0.000
19736 4 1.733 5.558 11.927 -0.010 0.008 -0.002 -0.000
488 4 10.810 4.833 -4.676 -0.002 0.015 0.002 0.000
1871 4 6.516 0.785 12.641 0.002 0.006 -0.001 -0.000
2108 4 8.578 7.659 10.348 -0.005 0.003 -0.004 0.000
1668 4 5.838 7.589 2.287 0.007 -0.004 0.001 -0.000
641 4 5.881 4.958 1.772 -0.006 0.005 -0.006 -0.000
2167 4 1.669 5.805 14.261 -0.007 0.002 0.008 -0.000
19015 4 1.813 10.613 -3.166 -0.000 -0.010 0.011 0.000
11555 4 0.872 11.007 14.820 0.005 0.006 0.001 -0.000
6353 4 7.716 7.869 -5.866 -0.013 0.007 -0.006 -0.000
20276 4 10.528 0.001 6.868 0.005 -0.015 -0.009 0.000
5387 4 11.081 8.099 11.489 0.002 -0.008 -0.001 -0.000
2270 4 10.607 3.271 15.598 -0.006 0.001 -0.006 -0.000
7781 4 2.598 3.557 10.472 0.004 -0.002 0.004 -0.000
722 4 4.727 12.995 8.374 0.010 -0.010 0.003 -0.000
9252 4 -0.879 5.373 2.406 -0.002 0.003 0.009 0.000
13066 4 2.988 2.713 3.722 0.000 0.007 0.018 -0.000
821 4 12.592 3.702 11.107 -0.000 0.003 -0.007 -0.000
6146 4 3.567 7.018 3.130 0.003 -0.011 -0.000 -0.000
9946 4 8.794 4.695 10.686 -0.000 -0.004 0.002 0.000
10374 4 0.464 9.119 6.475 0.000 -0.005 -0.002 0.000
11888 4 9.114 4.989 5.656 0.002 0.000 -0.001 0.000
11529 4 6.759 3.813 6.122 -0.001 0.012 0.011 -0.000
19342 4 11.705 14.231 -5.324 -0.014 -0.000 0.001 0.000
649 4 13.681 12.234 14.218 -0.001 0.007 0.013 0.000
1083 4 0.096 11.005 1.655 0.006 -0.000 0.006 0.000
14626 4 1.805 -0.005 16.332 0.011 0.003 0.002 -0.000
19785 4 1.264 2.261 4.909 0.007 -0.013 -0.003 0.000
22759 4 5.073 15.303 -0.123 0.008 0.003 0.010 -0.000
170 4 9.689 12.955 -3.295 -0.004 -0.010 -0.011 -0.000
42 4 7.330 1.906 9.302 0.000 -0.006 -0.002 -0.000
6318 4 6.442 8.849 10.468 -0.005 -0.001 -0.012 -0.000
59 4 7.273 -0.156 7.354 -0.011 -0.001 -0.009 0.000
9487 4 -3.119 0.519 2.573 0.003 0.004 -0.008 -0.000
2084 4 3.138 -0.255 9.799 -0.000 0.000 0.006 -0.000
6583 4 10.986 0.765 15.089 0.010 -0.005 0.006 0.000
1658 4 7.744 14.936 -3.547 0.005 0.003 -0.015 -0.000
5781 4 1.121 3.081 -5.014 -0.008 -0.004 0.004 -0.000
19624 4 9.832 12.501 10.001 0.004 0.001 -0.006 0.000
19763 4 7.996 -0.631 -4.546 -0.000 -0.009 0.008 -0.000
815 4 13.355 0.313 6.589 -0.001 0.004 -0.001 -0.000
24362 4 10.831 4.440 12.964 0.008 0.001 -0.005 -0.000
5247 4 0.063 15.557 12.919 -0.005 0.004 0.002 -0.000
4265 4 0.923 9.957 17.022 -0.003 0.002 -0.007 0.000
1004 4 -0.331 5.229 -0.070 0.006 0.009 -0.007 0.000
18699 4 12.136 12.411 -3.664 -0.002 0.001 0.003 0.000
9097 4 0.647 6.915 8.026 -0.002 -0.001 0.006 0.000
19419 4 2.515 6.426 -4.133 -0.008 0.005 0.000 -0.000
20141 4 1.666 -1.520 13.912 -0.004 -0.001 0.000 0.000
2976 4 14.800 14.602 -0.004 -0.011 -0.007 0.003 -0.000
2313 4 6.278 12.380 10.339 0.017 0.005 0.003 -0.000
3256 4 4.669 1.456 13.899 -0.003 -0.001 -0.006 -0.000
14297 4 4.717 -0.951 7.222 -0.003 -0.014 0.007 0.000
3484 4 -2.905 7.134 13.662 -0.001 0.021 -0.006 0.000
4713 4 8.802 10.506 3.117 -0.009 0.007 0.001 0.000
9028 4 13.454 7.643 4.529 0.002 0.003 0.011 -0.000
162 4 3.130 11.195 0.885 -0.000 -0.003 0.004 -0.000
223 4 7.580 14.167 6.742 0.004 0.003 0.009 -0.000
31 4 3.241 4.240 1.925 0.006 0.007 0.007 -0.000
730 4 6.008 5.865 14.121 -0.004 -0.005 0.001 -0.000
3883 4 2.601 -3.053 11.718 -0.007 0.003 -0.006 0.000
2668 4 7.727 11.552 -1.228 0.002 0.007 -0.005 -0.000
8390 4 8.071 6.391 8.179 -0.000 0.007 0.001 0.000
4681 4 5.296 11.001 19.275 -0.005 0.001 0.001 0.000
11292 4 2.171 10.999 7.885 -0.006 -0.001 -0.001 0.000
11807 4 -0.528 3.521 14.649 -0.006 -0.016 -0.008 -0.000
3504 4 5.460 12.083 16.749 -0.002 -0.013 0.001 0.000
2102 4 1.170 10.696 10.272 0.008 0.006 -0.007 0.000
13200 4 11.478 11.409 -5.967 -0.001 -0.001 -0.011 0.000
10129 4 -0.794 3.977 4.611 -0.009 0.011 -0.010 0.000
3972 4 1.580 15.752 11.359 -0.010 0.003 0.002 0.000
19702 4 0.081 1.025 -0.476 -0.005 0.001 0.005 -0.000
19009 4 5.293 8.879 12.650 0.001 -0.000 0.007 0.000
10769 4 8.912 -0.939 2.839 -0.002 0.002 0.028 0.000
2207 4 -0.292 -2.014 5.204 0.012 0.005 0.009 -0.000
2210 4 5.866 10.046 15.048 0.002 -0.002 0.006 -0.000
1383 4 12.000 9.206 -0.391 -0.002 0.017 -0.000 0.000
7054 4 -0.001 5.931 16.015 -0.002 -0.003 -0.003 0.000
7448 4 3.933 8.416 14.744 -0.005 -0.005 -0.007 -0.000
6962 4 10.608 11.156 5.144 0.001 0.008 -0.004 -0.000
5709 4 10.903 0.441 2.264 -0.003 0.005 -0.011 -0.000
16404 4 3.997 3.761 13.775 0.001 -0.007 -0.003 0.000
4601 4 11.529 1.483 0.198 -0.001 0.004 -0.009 -0.000
445 4 8.988 0.560 -6.552 -0.010 0.008 0.002 0.000
5393 4 3.611 6.742 0.180 0.003 0.010 0.004 -0.000
8647 4 0.593 -1.677 0.345 0.004 -0.006 0.009 0.000
3863 4 11.243 8.007 13.989 -0.009 0.004 0.003 -0.000
19226 4 3.694 2.120 5.949 -0.004 -0.003 -0.000 -0.000
5439 4 5.196 12.104 12.453 0.001 -0.005 0.006 0.000
17003 4 -1.141 3.444 17.242 -0.008 -0.007 -0.002 0.000
1331 4 9.566 1.417 9.715 -0.012 0.010 -0.001 0.000
4967 4 13.925 8.387 6.982 0.000 -0.006 0.001 -0.000
16043 4 8.304 3.741 -0.305 0.003 -0.013 0.003 0.000
4973 4 10.167 5.924 2.908 0.008 -0.014 -0.003 0.000
2513 4 7.474 3.151 3.728 -0.003 -0.002 0.012 -0.000
19899 4 7.329 14.296 12.165 0.004 0.007 0.002 0.000
461 4 10.833 2.238 7.533 -0.003 -0.006 0.003 0.000
487 4 5.828 1.534 6.973 0.000 0.006 -0.003 0.000
10282 4 2.840 13.936 16.179 0.001 0.007 0.008 -0.000
10774 4 8.582 4.596 14.300 0.002 0.002 0.002 0.000
5381 4 4.633 2.074 -4.156 0.003 -0.003 0.002 -0.000
1281 4 -1.696 3.338 1.213 0.000 -0.006 -0.001 -0.000
4552 4 12.023 -1.135 -0.318 -0.001 -0.007 -0.003 -0.000
16301 4 12.566 4.985 1.781 -0.004 0.003 -0.001 0.000
12796 4 3.376 5.994 9.312 0.000 -0.002 0.005 0.000
10332 4 7.003 -2.513 6.632 0.000 0.007 -0.004 -0.000
4059 4 2.308 4.154 7.944 0.003 -0.002 -0.000 -0.000
1667 4 6.952 6.794 11.761 -0.008 -0.008 -0.009 0.000
846 4 10.333 5.950 8.640 0.005 0.002 -0.004 0.000
5645 4 4.330 8.822 17.435 0.008 0.003 0.013 0.000
1659 4 4.494 7.445 10.871 0.000 0.002 0.001 0.000
4486 4 -2.152 13.733 9.222 0.005 0.004 -0.005 -0.000
8471 4 2.831 3.943 -3.294 0.003 0.000 0.003 0.000
5391 4 4.471 13.710 11.102 0.003 -0.001 -0.002 0.000
5512 4 1.528 7.424 4.486 0.003 0.002 0.010 0.000
24721 4 5.355 2.606 3.482 0.001 0.007 -0.002 0.000
11139 4 12.929 6.081 13.086 0.005 0.003 0.001 0.000
2124 4 12.788 4.358 15.432 -0.006 0.005 0.000 0.000
19336 4 -2.070 5.454 -2.739 0.004 0.001 -0.001 0.000
10373 4 11.346 1.188 -1.869 0.006 0.001 -0.009 -0.000
5877 4 14.677 2.557 5.867 0.005 -0.003 0.010 -0.000
9565 4 3.187 10.515 16.294 0.000 0.008 -0.001 -0.000
16364 4 -2.577 14.827 -0.864 0.002 -0.006 0.000 -0.000
27161 4 -2.014 2.998 -4.143 -0.002 -0.016 0.000 0.000
1443 4 0.286 12.977 6.956 -0.005 0.003 -0.002 0.000
14840 4 4.525 11.143 6.020 0.006 -0.003 0.004 -0.000
3259 4 9.569 6.370 12.827 0.004 0.004 -0.002 0.000
9054 4 -2.313 5.234 10.636 0.006 -0.006 0.005 -0.000
17055 4 -1.140 11.953 19.482 0.002 -0.008 0.003 0.000
1364 4 7.774 11.777 11.917 -0.006 0.001 0.005 0.000
1092 4 4.085 12.424 3.352 0.002 0.003 0.002 0.000
13973 4 -0.109 0.523 -4.104 -0.008 -0.007 -0.005 0.000
6539 4 9.762 5.723 19.308 0.003 0.002 -0.006 -0.000
5081 4 12.411 8.263 16.201 0.003 0.008 0.003 -0.000
1623 4 8.627 8.293 18.904 -0.001 -0.001 -0.005 0.000
9131 4 8.848 -1.254 5.607 0.007 0.002 -0.006 0.000
1324 4 -2.771 -1.360 8.678 -0.004 0.001 0.001 -0.000
164 4 -0.627 10.144 4.253 -0.001 -0.007 0.003 -0.000
3711 4 12.903 10.169 13.155 -0.015 -0.000 0.014 -0.000
16321 4 -3.481 2.280 15.386 0.005 0.002 -0.002 0.000
8762 4 7.352 -1.293 -1.509 -0.006 0.001 -0.006 -0.000
613 4 2.789 11.808 12.338 -0.009 -0.001 -0.004 -0.000
6549 4 9.161 4.732 16.535 -0.002 -0.003 -0.000 0.000
1734 4 11.184 6.610 5.886 -0.006 -0.000 -0.005 0.000
9772 4 -5.083 -0.258 18.591 -0.001 -0.000 0.004 0.000
23262 4 -2.561 3.120 9.171 0.001 0.003 -0.003 -0.000
19803 4 -2.855 7.050 -5.685 -0.009 -0.002 0.008 -0.000
3278 4 -0.657 9.312 8.762 -0.002 -0.009 0.006 -0.000
31992 4 9.130 4.021 8.194 -0.002 -0.002 -0.011 0.000
13143 4 -0.108 9.382 20.001 -0.010 0.006 0.005 -0.000
17294 4 -2.801 10.139 -1.337 -0.001 -0.012 0.002 0.000
2485 4 11.235 9.322 3.329 -0.007 -0.006 0.002 0.000
5706 4 12.312 2.089 17.071 -0.013 -0.005 -0.005 0.000
1735 4 10.298 -0.983 -2.242 -0.009 -0.007 -0.002 0.000
2407 4 2.030 2.194 14.527 -0.011 -0.006 -0.015 0.000
6687 4 9.476 8.254 -1.280 0.004 -0.004 -0.004 -0.000
11533 4 5.730 14.264 18.035 -0.001 0.008 -0.002 -0.000
23626 4 11.323 3.191 2.720 0.007 -0.016 -0.008 -0.000
1692 4 2.239 15.007 -0.779 -0.011 0.005 0.004 0.000
20658 4 -4.492 5.021 13.079 -0.014 -0.003 0.001 0.000
1718 4 9.933 8.907 1.202 0.001 0.003 -0.014 0.000
2008 4 4.562 -0.928 11.949 0.000 -0.003 -0.000 0.000
31430 4 -2.835 12.249 12.350 -0.006 -0.004 -0.003 -0.000
15680 4 5.455 14.751 15.245 -0.002 0.017 0.008 -0.000
648 4 3.049 9.258 19.605 0.008 -0.006 -0.010 -0.000
1912 4 11.495 13.543 14.686 -0.005 0.002 0.001 -0.000
8732 4 -2.838 1.070 -2.569 -0.005 -0.003 -0.003 -0.000
16856 4 5.924 4.633 17.336 -0.008 -0.004 -0.009 -0.000
1516 4 14.937 13.416 12.406 0.001 -0.000 0.001 -0.000
897 4 -1.346 12.635 15.076 -0.002 -0.001 -0.002 -0.000
1736 4 9.801 14.403 13.012 -0.000 0.009 0.010 0.000
23635 4 1.268 14.212 18.828 0.002 -0.004 0.003 0.000
12640 4 -1.689 5.179 6.707 0.004 -0.003 -0.003 0.000
2918 4 -0.226 8.307 13.425 0.007 -0.004 0.007 0.000
3855 4 -3.705 15.752 17.730 0.005 0.001 0.002 0.000
9018 4 0.368 13.115 11.997 -0.001 0.005 0.004 -0.000
1684 4 1.596 4.308 16.246 0.000 -0.000 -0.008 0.000
2368 4 -1.738 10.173 17.620 -0.003 0.002 0.000 -0.000
1765 4 10.852 11.940 17.307 -0.015 0.007 0.000 -0.000
12350 4 -1.388 0.605 9.129 0.004 -0.000 0.008 0.000
914 4 10.722 6.752 17.158 -0.004 0.009 -0.001 0.000
28631 4 8.070 10.453 9.825 0.001 0.012 -0.015 -0.000
3304 4 7.064 12.339 3.067 -0.002 0.002 -0.002 0.000
2164 4 3.344 -1.916 17.862 -0.004 -0.001 0.003 -0.000
1386 4 11.885 4.051 -2.466 0.002 -0.009 -0.003 -0.000
21421 4 -3.719 10.790 15.786 0.009 0.006 -0.003 0.000
2699 4 -4.815 6.157 15.580 0.002 0.006 0.007 -0.000
10563 4 -1.123 2.344 6.917 0.004 -0.003 -0.012 -0.000
25895 4 5.436 10.062 -0.456 -0.024 0.008 -0.004 -0.000
3733 4 13.185 10.574 10.514 -0.008 -0.013 0.004 -0.000
168 4 1.380 11.738 4.933 0.005 -0.006 0.011 -0.000
18081 4 6.500 5.607 -0.983 0.009 -0.004 -0.002 -0.000
2452 4 5.658 15.246 8.261 -0.004 0.009 -0.003 -0.000
3048 4 11.465 13.602 2.961 -0.004 -0.001 0.001 0.000
15011 4 7.481 2.564 17.231 0.001 -0.003 0.005 0.000
4539 4 -2.229 -0.587 11.260 0.008 0.005 -0.002 0.000
22585 4 -2.049 3.727 20.353 0.019 0.003 0.010 0.000
5827 4 0.767 1.902 17.555 -0.013 -0.012 -0.004 0.000
1054 4 8.667 8.823 13.987 0.002 0.008 -0.001 -0.000
27771 4 -2.405 -2.078 1.051 0.003 0.002 0.013 0.000
7306 4 -0.293 12.504 9.517 -0.003 -0.003 0.008 0.000
27619 4 1.100 1.533 10.129 0.004 0.001 0.002 0.000
4557 4 2.383 10.239 3.093 -0.001 -0.004 -0.006 0.000
20844 4 11.808 7.397 19.686 0.006 0.004 0.009 -0.000
2516 4 0.142 12.418 17.032 -0.006 0.004 -0.009 0.000
19293 4 -2.459 0.914 0.304 0.002 0.003 0.009 -0.000
1380 4 -0.318 14.242 -2.329 0.002 -0.001 -0.002 -0.000
22878 4 -3.201 12.928 0.838 -0.006 0.003 -0.012 -0.000
9902 4 4.776 0.194 5.183 -0.007 0.011 0.001 -0.000
20075 4 3.925 2.797 16.183 0.002 0.003 -0.004 -0.000
6951 4 1.173 13.659 14.309 -0.004 0.009 -0.008 0.000
926 4 8.216 -0.279 11.033 -0.005 -0.006 -0.008 0.000
1652 4 13.381 -0.325 1.942 -0.003 0.014 0.004 0.000
11150 4 14.212 8.318 14.482 -0.007 0.006 -0.010 -0.000
5916 4 0.891 8.504 -4.232 -0.014 -0.005 -0.001 0.000
6313 4 6.821 9.717 17.453 -0.001 0.001 -0.006 -0.000
6274 4 8.977 10.229 -6.225 0.003 0.001 -0.002 0.000
6566 4 13.502 0.833 4.171 0.002 0.001 -0.001 0.000
4111 4 -1.057 11.999 -1.065 0.010 -0.009 0.003 -0.000
4272 4 4.847 11.161 -2.890 -0.007 -0.009 0.001 -0.000
535 4 7.353 6.948 5.337 -0.008 -0.000 0.004 0.000
46 4 -0.545 5.663 -4.856 -0.003 0.004 -0.002 -0.000
1276 4 13.710 12.394 4.268 -0.010 0.008 -0.003 -0.000
30000 4 4.041 8.423 -4.019 0.001 -0.011 0.009 -0.000
1845 4 6.800 9.745 5.303 -0.003 -0.007 -0.001 0.000
1363 4 9.307 2.458 1.121 0.003 -0.005 -0.006 -0.000
2853 4 6.811 -2.128 9.212 -0.003 0.009 0.001 0.000
11419 4 7.689 6.260 20.110 0.002 -0.004 -0.010 -0.000
1890 4 -1.615 7.919 -3.438 0.006 0.009 0.000 0.000
2601 4 5.226 14.602 2.566 -0.007 0.006 -0.010 -0.000
16208 4 9.877 0.781 12.639 -0.000 -0.009 0.015 -0.000
3017 4 -1.118 9.501 -5.487 -0.014 0.001 0.000 -0.000
14686 4 13.342 5.850 20.570 0.002 0.003 0.011 -0.000
20267 4 10.319 -0.193 18.053 -0.005 0.007 -0.001 -0.000
4517 4 5.012 7.975 -6.221 0.016 -0.001 0.002 0.000
810 4 11.793 4.231 8.991 -0.006 -0.004 -0.001 -0.000
8967 4 8.146 11.141 -3.604 0.006 -0.006 -0.001 -0.000
27979 4 4.010 -1.595 -4.724 0.006 -0.002 0.013 -0.000
13520 4 -2.687 1.307 5.325 -0.011 -0.001 -0.009 -0.000
687 4 13.420 5.884 -2.232 -0.005 0.003 0.002 0.000
20912 4 5.617 2.517 19.013 0.001 0.009 0.000 0.000
2936 4 -2.489 8.532 19.179 0.003 0.002 0.003 -0.000
1132 4 -4.052 7.117 -2.375 0.007 0.005 -0.001 -0.000
13996 4 5.995 -1.431 16.709 -0.001 -0.002 0.004 0.000
5302 4 5.743 0.907 16.298 -0.001 -0.001 -0.001 -0.000
9938 4 4.667 -3.409 12.788 -0.006 -0.012 0.007 -0.000
1651 4 -1.029 2.086 11.132 -0.008 0.016 -0.007 0.000
10462 4 5.504 13.281 5.714 0.003 -0.000 -0.011 -0.000
9543 4 2.199 0.049 4.234 -0.004 0.017 0.001 0.000
27566 4 9.754 12.892 -5.936 -0.004 -0.007 0.002 0.000
2617 4 3.294 14.510 13.408 -0.013 -0.012 0.007 0.000
2848 4 5.349 5.103 19.882 0.003 0.012 0.009 0.000
809 4 1.936 1.621 -1.707 0.002 -0.014 0.002 -0.000
31953 4 -2.628 2.999 3.463 0.002 0.003 -0.002 -0.000
23506 4 2.411 13.004 9.942 0.008 -0.005 0.006 0.000
11028 4 8.121 -0.142 16.604 -0.002 0.002 -0.007 -0.000
1614 4 3.578 12.727 18.443 -0.003 0.008 -0.005 -0.000
2551 4 10.029 13.192 5.029 0.007 -0.002 0.007 -0.000
13577 4 -0.062 6.773 -6.827 -0.009 0.009 -0.007 0.000
602 4 13.976 2.689 2.142 0.006 -0.003 -0.008 -0.000
5712 4 11.737 -0.579 4.436 0.003 0.004 0.003 0.000
16530 4 -0.528 7.840 17.261 -0.005 0.005 -0.003 0.000
11869 4 8.990 7.425 15.548 -0.005 -0.005 -0.004 -0.000
3774 4 7.947 10.125 19.723 0.005 -0.010 0.001 0.000
2785 4 3.678 -2.116 15.528 0.003 -0.016 0.003 -0.000
6876 4 -4.943 12.693 10.642 0.002 0.004 0.001 -0.000
7265 4 -2.722 -1.710 3.794 0.001 0.003 -0.007 0.000
19169 4 3.187 15.091 -3.099 0.003 -0.001 0.016 0.000
4313 4 3.798 15.859 6.328 -0.000 -0.005 0.005 -0.000
7277 4 7.323 -1.730 12.793 -0.003 0.002 0.003 -0.000
16169 4 1.657 11.043 18.894 0.002 -0.002 0.003 -0.000
8060 4 9.354 13.637 -0.249 -0.007 -0.002 -0.005 0.000
19790 4 9.260 -0.922 8.688 -0.002 -0.001 0.006 -0.000
8687 4 -1.608 11.586 -3.707 -0.002 -0.007 -0.011 -0.000
19656 4 -4.575 2.254 -4.798 0.003 0.006 0.002 0.000
12512 4 -3.116 -1.448 19.070 -0.001 0.003 -0.006 -0.000
5677 4 3.707 4.174 -5.541 0.013 -0.002 -0.002 -0.000
6072 4 -4.508 2.908 -0.198 0.003 0.004 0.005 -0.000
31119 4 -3.511 4.820 -5.006 -0.004 0.000 0.001 0.000
1124 4 -3.810 14.086 19.873 -0.014 -0.006 0.007 0.000
10758 4 -3.146 2.023 18.040 -0.000 -0.000 0.009 -0.000
19782 4 10.391 0.837 -4.752 -0.003 0.001 0.001 0.000
4985 4 7.491 4.043 19.212 0.006 0.011 -0.004 -0.000
19802 4 -3.054 12.716 -2.107 -0.002 0.003 0.002 -0.000
16881 4 1.921 -2.597 -4.929 -0.008 0.004 0.004 -0.000
10684 4 10.574 3.613 -0.445 -0.005 0.004 0.006 0.000
18487 4 8.189 11.908 0.970 0.002 0.002 -0.001 0.000
3303 4 5.877 8.750 19.945 -0.001 0.003 -0.003 0.000
6255 4 -2.194 12.480 17.272 -0.009 -0.007 -0.001 0.000
23109 4 -4.110 -2.226 -0.727 -0.002 -0.002 0.000 0.000
2498 4 7.175 0.508 18.646 -0.005 0.001 -0.003 0.000
23630 4 6.954 14.079 0.838 -0.006 0.003 -0.003 0.000
10354 4 13.561 2.521 7.972 0.003 -0.007 0.007 0.000
30600 4 -3.431 0.927 20.281 -0.009 -0.011 -0.010 -0.000
6498 4 3.478 14.467 4.607 0.006 -0.005 -0.003 -0.000
19777 4 13.174 11.612 -0.745 0.003 -0.000 0.011 -0.000
24945 4 4.235 -0.124 2.655 0.001 0.003 -0.003 -0.000
20680 4 9.699 14.071 18.321 0.001 0.007 -0.002 -0.000
2209 4 9.868 2.353 18.483 -0.005 0.007 -0.002 0.000
11919 4 -0.956 0.364 18.622 -0.008 -0.002 -0.006 -0.000
956 4 12.165 10.991 7.988 -0.001 -0.006 0.001 0.000
16004 4 12.515 7.971 9.366 -0.010 -0.008 -0.005 0.000
11110 4 8.097 -2.354 15.708 -0.010 0.002 -0.004 0.000
14150 4 -0.250 0.663 14.447 -0.000 0.010 0.015 -0.000
22875 4 -1.319 3.100 -1.141 -0.001 0.014 -0.002 -0.000
9762 4 6.880 2.067 -2.931 0.010 -0.002 0.007 -0.000
18401 4 -1.643 9.717 0.434 0.009 0.001 -0.015 -0.000
31558 4 -1.265 -1.250 6.983 -0.005 0.002 -0.006 0.000
9788 4 14.756 -1.328 14.837 0.010 0.001 -0.003 -0.000
5720 4 -3.002 7.139 5.893 -0.004 -0.006 0.002 0.000
1721 4 -4.211 13.178 14.218 -0.007 0.007 -0.004 -0.000
18240 4 12.983 12.420 16.578 -0.003 -0.001 -0.011 -0.000
15547 4 3.209 5.513 18.395 0.003 -0.006 0.004 0.000
16687 4 3.616 15.406 18.942 -0.004 0.014 0.006 0.000
13152 4 1.043 -2.711 16.537 -0.009 -0.004 0.005 -0.000
7682 4 7.958 -3.271 4.038 0.005 -0.013 -0.005 0.000
19483 4 5.923 13.423 -3.915 0.002 0.001 0.000 -0.000
10296 4 -3.742 5.525 8.423 0.006 -0.005 -0.007 0.000
9100 4 -0.419 -1.524 15.386 0.000 -0.008 -0.004 -0.000
1152 4 14.183 7.990 -4.364 -0.004 0.001 -0.004 0.000
3825 4 12.866 14.848 12.955 -0.002 0.012 -0.007 0.000
505 4 9.218 12.331 15.203 0.001 0.001 0.003 -0.000
4610 4 -1.986 5.944 17.628 -0.010 -0.008 0.001 0.000
11184 4 -3.590 11.219 19.256 -0.009 0.004 0.001 -0.000
4643 4 -1.084 6.281 20.181 0.006 -0.013 -0.009 -0.000
1220 4 3.292 1.415 18.092 0.005 -0.001 0.010 0.000
27551 4 11.654 -2.182 1.861 0.006 -0.003 -0.018 0.000
31534 4 -2.974 5.405 -0.212 -0.004 0.002 -0.005 -0.000
9582 4 12.023 12.521 12.099 -0.010 0.003 -0.011 0.000
2691 4 8.404 -0.034 14.012 0.001 -0.003 0.005 0.000
3416 4 -2.597 0.973 13.122 -0.003 0.005 -0.001 0.000
14356 4 -4.147 4.154 -2.534 0.001 0.006 0.002 -0.000
1293 4 -0.831 13.880 -4.800 -0.005 -0.007 -0.004 0.000
12949 4 12.720 2.011 -4.051 0.001 0.001 0.003 0.000
19409 4 13.192 3.531 -0.315 0.011 -0.007 -0.003 0.000
3177 4 5.108 12.349 1.310 0.001 -0.004 0.010 -0.000
8635 4 2.611 0.682 -4.279 -0.006 -0.008 0.009 -0.000
1601 4 12.808 10.251 1.559 -0.001 -0.003 0.001 -0.000
1210 4 -3.481 9.654 -4.308 0.006 0.004 -0.004 -0.000
9402 4 13.782 10.192 -5.830 -0.008 -0.005 -0.007 -0.000
2029 4 7.060 -2.315 19.819 0.007 0.011 0.005 -0.000
14348 4 -3.472 -1.671 14.194 -0.002 0.002 -0.007 0.000
5372 4 13.319 13.615 -1.958 0.003 -0.002 0.004 0.000
13590 4 0.480 -1.772 -2.733 0.004 0.005 0.001 -0.000
19887 4 11.329 8.815 5.807 -0.003 -0.006 0.007 -0.000
13408 4 12.572 -0.722 -3.169 0.001 0.000 0.002 -0.000
3264 4 13.575 10.217 -3.185 -0.003 -0.002 -0.002 0.000
895 4 -1.405 -2.147 12.917 -0.004 0.015 -0.008 0.000
10896 4 -0.480 -0.972 20.696 0.010 0.006 0.000 -0.000
24218 4 10.598 -1.668 15.417 -0.001 -0.006 -0.004 -0.000
3824 4 14.361 7.809 18.961 -0.003 -0.003 0.003 -0.000
7151 4 -4.990 -0.401 4.050 0.001 -0.010 -0.012 -0.000
27444 4 3.873 -2.054 4.261 0.007 0.001 0.000 0.000
20234 4 9.016 10.219 16.573 -0.009 0.006 -0.015 -0.000
2857 4 -2.992 7.332 11.324 0.009 -0.002 -0.005 -0.000
2524 4 -1.371 13.254 4.407 0.001 0.004 -0.006 -0.000
27130 4 13.842 7.800 -1.058 -0.002 0.013 -0.006 -0.000
892 4 -4.133 7.794 -0.049 0.001 0.004 0.003 -0.000
7717 4 14.144 1.202 14.112 0.007 0.006 0.002 0.000
24054 4 -3.650 14.730 10.904 0.013 0.003 -0.002 -0.000
3144 4 9.836 15.406 6.132 0.001 -0.002 -0.002 0.000
1252 4 10.173 14.351 8.089 -0.009 -0.000 -0.005 -0.000
466 4 11.822 0.487 9.036 0.002 -0.002 -0.008 -0.000
11571 4 12.304 -0.304 20.620 0.000 0.005 0.004 -0.000
2053 4 5.321 6.883 18.173 -0.004 0.003 -0.008 -0.000
6673 4 7.601 13.823 9.311 -0.000 -0.004 0.001 0.000
19364 4 -2.177 12.420 -6.495 -0.009 -0.002 -0.006 -0.000
2 4 4.944 -2.182 -1.638 -0.009 0.012 0.001 -0.000
1286 4 13.911 6.196 16.816 -0.015 0.001 0.008 -0.000
30333 4 -2.683 -1.185 -5.389 -0.016 0.007 -0.004 0.000
11463 4 11.717 14.743 17.984 -0.002 -0.008 -0.006 -0.000
12013 4 -2.959 15.409 -6.307 0.002 0.004 -0.008 0.000
2014 4 10.884 -2.347 8.681 -0.006 0.002 0.009 0.000
2075 4 12.645 -1.438 16.806 0.002 -0.003 -0.010 -0.000
20673 4 1.456 0.836 19.720 -0.006 0.004 -0.002 0.000
17163 4 3.236 12.912 -4.281 0.004 -0.010 0.015 -0.000
23659 4 3.670 10.595 -5.369 0.008 -0.002 -0.003 0.000
11897 4 9.151 -0.597 20.495 -0.003 0.010 0.009 0.000
9735 4 -3.694 1.286 10.676 -0.010 -0.005 -0.002 -0.000
20545 4 -3.404 1.005 7.629 -0.009 0.006 -0.000 -0.000
20990 4 2.011 3.406 18.935 -0.002 0.005 0.004 -0.000
3085 4 6.575 1.445 -5.494 -0.001 0.008 0.006 0.000
4833 4 -4.479 -1.618 2.064 0.009 0.005 -0.005 0.000
3563 4 10.412 -2.832 17.464 0.009 0.006 -0.013 -0.000
9824 4 4.858 -2.166 0.884 0.007 0.002 -0.022 -0.000
10695 4 13.473 -0.898 10.359 -0.003 -0.004 -0.003 -0.000
22986 4 3.078 14.219 1.399 -0.005 -0.002 -0.002 -0.000
4714 4 -3.526 -1.074 6.208 0.004 0.003 0.009 -0.000
7272 4 10.601 14.674 -2.356 0.010 -0.002 -0.014 -0.000
900 4 0.444 4.307 20.363 0.005 0.005 -0.008 0.000
1900 4 7.559 15.607 4.408 -0.006 -0.002 0.010 -0.000
4894 4 11.575 10.781 15.171 -0.005 -0.007 -0.007 -0.000
5627 4 -2.726 12.959 6.440 0.007 -0.000 0.002 -0.000
1909 4 12.012 15.813 14.888 -0.001 0.003 0.001 0.000
4955 4 -3.675 15.680 13.425 0.000 0.012 -0.002 -0.000
652 4 5.395 15.343 -5.677 -0.000 -0.011 0.004 -0.000
11950 4 -2.717 -0.098 16.279 0.005 -0.001 0.012 -0.000
8419 4 12.103 14.190 9.895 -0.006 -0.008 -0.010 0.000
14200 4 14.294 14.755 17.479 -0.005 0.010 0.002 -0.000
19536 4 8.348 5.277 -5.852 0.009 0.004 -0.006 -0.000
25968 4 0.941 11.578 -5.254 -0.008 0.004 -0.000 0.000
20190 4 5.676 15.354 13.021 0.002 0.001 0.004 -0.000
1385 4 11.624 -2.115 6.195 -0.003 -0.006 -0.007 -0.000
4432 4 9.542 -2.316 0.097 0.004 0.003 -0.004 -0.000
13229 4 -3.928 13.010 -4.473 0.001 0.002 0.002 0.000
64 4 12.587 -0.947 13.215 -0.001 0.005 0.008 0.000
31994 4 -4.313 -0.756 -3.519 0.010 0.004 0.013 0.000
2412 4 0.802 -0.612 11.624 0.000 -0.004 -0.002 0.000
2023 4 -1.342 -2.090 18.098 0.002 0.002 0.004 -0.000
2418 4 8.528 -2.213 -6.250 0.001 0.002 -0.004 0.000
8864 4 -0.304 14.604 16.432 -0.003 0.007 0.001 -0.000
5068 4 -1.930 14.544 18.820 -0.003 -0.003 -0.004 0.000
2810 4 6.023 0.124 20.899 -0.008 0.001 -0.003 0.000
4478 4 12.027 4.597 18.532 -0.003 -0.001 -0.016 0.000
7159 4 13.929 12.532 1.304 -0.010 -0.004 -0.013 0.000
10065 4 -3.026 3.615 6.100 0.001 -0.004 -0.009 -0.000
1416 4 2.884 14.901 8.633 -0.009 0.003 0.002 -0.000
7666 4 -4.008 4.517 17.520 0.001 0.001 -0.004 0.000
23794 4 -1.532 14.137 13.681 0.003 -0.004 0.002 0.000
1096 4 8.841 3.111 -5.326 0.006 0.001 0.013 -0.000
2560 4 12.395 13.186 6.534 0.001 0.004 -0.002 0.000
19646 4 13.252 3.937 -5.559 -0.006 -0.001 0.003 0.000
2994 4 14.046 14.710 3.199 0.019 -0.004 0.008 -0.000
9606 4 14.357 14.832 7.871 0.000 0.003 0.003 -0.000
8497 4 -3.092 15.159 -3.686 0.004 0.004 -0.003 0.000