ITEM: TIMESTEP
21000
ITEM: NUMBER OF ATOMS
32000
ITEM: BOX BOUNDS pp pp pp
-5.576565 76.056565
-4.701857 75.181857
-5.347517 75.827517
ITEM: ATOMS id type x y z vx vy vz q
488 4 4.757 9.671 12.792 -0.003 0.012 -0.000 -0.000
529 4 0.876 7.619 11.732 0.012 0.010 -0.001 0.000
531 4 -1.701 8.031 10.588 -0.003 0.003 -0.010 -0.000
539 4 12.829 15.048 12.789 0.001 0.016 -0.007 -0.000
810 4 -0.389 -1.084 12.292 0.006 -0.003 -0.005 -0.000
847 4 8.767 5.863 4.876 -0.001 0.003 0.010 -0.000
890 4 5.806 1.929 14.036 0.011 0.014 0.002 0.000
892 4 6.905 2.564 18.320 -0.000 0.004 -0.014 0.000
893 4 4.718 2.712 -1.605 0.005 -0.007 0.012 0.000
896 4 8.143 3.596 13.778 -0.001 0.001 0.011 0.000
971 4 11.578 12.407 16.742 -0.008 0.001 0.013 0.000
1206 4 3.483 5.279 -2.702 -0.000 0.007 0.001 -0.000
1218 4 11.082 0.782 5.241 0.015 0.007 0.005 0.000
1248 4 13.200 -3.066 8.498 0.008 0.008 0.001 0.000
1249 4 10.686 4.741 3.817 0.002 0.019 0.004 0.000
1250 4 14.045 3.418 0.558 0.002 0.000 -0.005 0.000
1285 4 0.549 1.640 7.229 -0.006 -0.008 -0.006 -0.000
1289 4 11.178 0.172 11.293 -0.002 -0.013 0.010 0.000
1295 4 6.539 1.074 -3.248 -0.011 0.005 0.004 -0.000
1329 4 7.505 10.514 12.292 0.003 -0.006 0.003 -0.000
1331 4 7.320 3.531 20.601 0.002 -0.009 0.008 0.000
1335 4 1.488 2.165 19.060 0.004 0.002 0.004 0.000
1338 4 5.694 11.431 2.436 0.004 -0.006 0.007 -0.000
1610 4 -1.575 6.652 7.911 0.001 -0.007 -0.006 -0.000
1644 4 6.007 8.757 11.251 -0.006 0.013 0.002 0.000
1646 4 3.522 3.756 10.663 -0.005 -0.017 0.006 0.000
1650 4 1.582 3.736 2.431 -0.008 -0.002 0.003 0.000
1651 4 -0.668 12.017 8.462 -0.005 0.000 -0.014 0.000
1655 4 8.455 4.090 6.899 -0.009 0.002 0.004 -0.000
1689 4 3.891 1.703 9.700 0.016 0.002 -0.003 0.000
1690 4 2.954 5.241 1.400 -0.005 0.005 -0.003 -0.000
1728 4 8.773 7.686 3.119 0.010 0.002 0.007 -0.000
1735 4 12.011 2.399 11.499 0.001 0.000 -0.008 -0.000
1767 4 4.088 10.668 10.382 0.007 0.014 0.005 -0.000
2086 4 9.173 14.023 3.524 -0.014 0.003 0.009 0.000
2087 4 1.330 4.306 11.823 0.001 0.007 0.001 0.000
2088 4 8.417 7.849 9.599 -0.005 -0.002 -0.008 0.000
2092 4 9.721 9.699 10.303 -0.011 0.005 0.002 -0.000
2125 4 1.157 14.078 19.116 -0.004 0.009 0.002 -0.000
2129 4 10.523 3.917 15.862 0.005 0.002 -0.003 -0.000
2412 4 9.163 7.616 15.023 0.017 -0.003 0.002 0.000
2452 4 7.742 0.611 10.136 0.007 -0.002 -0.003 0.000
2525 4 3.242 11.191 13.999 0.001 -0.001 -0.001 0.000
2528 4 4.259 3.468 17.794 -0.002 -0.001 0.001 0.000
2529 4 13.356 0.458 16.713 -0.002 -0.008 0.000 -0.000
2532 4 11.824 7.324 10.934 0.004 -0.002 -0.004 -0.000
2573 4 9.276 1.193 7.140 0.001 -0.009 -0.007 -0.000
481 4 11.082 5.473 0.445 -0.003 -0.004 -0.003 0.000
1609 4 13.095 -0.680 5.566 0.001 -0.000 0.004 -0.000
2454 4 7.988 13.057 13.309 0.003 -0.001 0.001 0.000
403 4 6.387 5.633 0.932 0.003 -0.013 0.008 -0.000
2455 4 6.840 10.062 6.627 -0.004 -0.001 0.004 0.000
163 4 7.234 12.618 7.514 -0.005 0.005 0.002 -0.000
1815 4 12.668 3.979 -3.974 -0.010 0.001 -0.002 -0.000
2044 4 9.422 12.570 5.489 -0.002 0.002 0.004 -0.000
8370 4 -2.805 6.678 5.275 0.002 0.000 -0.006 0.000
127 4 13.792 8.200 -2.590 0.011 -0.003 -0.003 0.000
2534 4 12.736 2.988 16.286 0.001 -0.005 0.007 0.000
1732 4 6.967 14.280 15.259 -0.010 0.000 0.002 -0.000
964 4 1.230 3.205 4.878 0.007 0.001 -0.001 -0.000
1684 4 7.325 6.037 13.391 0.009 -0.004 0.003 -0.000
2816 4 6.950 6.550 15.970 0.006 -0.004 -0.012 0.000
851 4 9.648 -0.143 18.313 0.005 -0.009 -0.003 0.000
8769 4 7.092 1.481 7.676 -0.013 0.004 -0.001 -0.000
2483 4 5.158 7.402 18.182 -0.013 -0.008 -0.005 0.000
2603 4 7.633 3.609 16.336 -0.007 0.012 0.009 0.000
1765 4 3.707 -3.245 15.092 0.001 -0.003 -0.001 -0.000
3247 4 10.561 7.982 5.041 0.004 0.005 -0.002 0.000
809 4 14.517 -2.673 4.389 -0.002 0.002 -0.006 -0.000
1727 4 0.923 10.254 17.450 0.004 0.004 0.005 0.000
841 4 2.027 5.690 3.891 0.010 -0.005 -0.005 0.000
568 4 9.750 7.965 0.451 -0.004 0.006 -0.010 0.000
979 4 9.943 13.031 1.590 -0.001 0.007 0.001 0.000
9968 4 5.581 7.899 1.455 0.001 -0.007 0.013 0.000
444 4 3.218 3.626 7.151 -0.005 0.001 0.004 0.000
1649 4 10.049 2.007 9.881 -0.012 0.006 -0.001 -0.000
610 4 6.598 14.724 12.808 0.002 0.002 0.006 -0.000
852 4 -3.979 6.241 -0.467 -0.004 0.000 0.002 -0.000
572 4 13.797 6.042 0.831 0.001 -0.002 -0.005 -0.000
19413 4 -1.132 -2.609 7.389 0.005 -0.003 0.002 -0.000
1365 4 2.645 10.161 -0.975 -0.002 0.001 0.005 0.000
1696 4 9.074 1.181 15.059 -0.006 0.004 -0.002 0.000
1217 4 -2.117 1.432 7.638 -0.003 -0.015 0.000 -0.000
1725 4 8.957 3.922 11.102 -0.008 0.003 -0.006 -0.000
566 4 5.988 8.387 8.384 0.010 0.009 -0.011 -0.000
1686 4 -1.699 10.606 13.482 -0.001 0.009 -0.001 -0.000
9930 4 3.620 10.202 5.840 -0.001 -0.003 -0.007 -0.000
4479 4 5.915 4.380 14.528 0.005 -0.007 0.006 -0.000
2106 4 7.400 14.497 5.266 0.007 -0.006 -0.000 0.000
9974 4 10.637 5.879 6.526 0.005 -0.012 0.005 0.000
9565 4 6.238 5.207 18.075 -0.004 0.001 -0.013 0.000
95 4 12.663 0.282 3.283 -0.009 -0.011 0.004 0.000
5758 4 -1.749 10.486 4.132 -0.010 0.017 -0.000 0.000
19736 4 9.080 5.028 9.272 -0.002 0.004 -0.003 -0.000
2204 4 6.738 10.303 9.682 0.002 0.002 0.008 0.000
569 4 1.710 8.577 5.286 -0.000 0.004 -0.006 -0.000
19682 4 4.556 5.534 5.428 -0.008 0.005 -0.000 0.000
1251 4 5.390 -1.084 14.582 0.003 0.002 0.003 -0.000
7233 4 3.645 1.180 15.112 0.013 0.004 -0.005 0.000
55 4 -2.343 -0.664 11.022 -0.003 -0.007 -0.002 -0.000
2643 4 4.625 8.882 15.364 -0.004 -0.000 0.004 -0.000
6480 4 1.106 1.797 11.536 0.005 -0.002 -0.012 -0.000
1761 4 6.488 13.068 10.015 0.009 0.010 -0.004 -0.000
456 4 6.228 5.462 -1.968 0.006 0.007 0.002 0.000
1281 4 4.805 -0.489 6.910 0.004 -0.009 -0.002 -0.000
1653 4 7.167 5.909 8.434 0.007 0.001 -0.001 0.000
1135 4 8.855 5.947 -0.891 0.006 0.001 0.011 -0.000
1282 4 3.406 9.509 3.818 0.007 -0.002 0.003 0.000
19776 4 11.265 11.636 9.594 0.000 -0.005 0.007 -0.000
2124 4 5.129 6.611 13.722 0.004 -0.004 -0.004 0.000
19408 4 4.246 7.510 4.002 0.001 -0.002 0.014 -0.000
2084 4 10.264 1.459 2.192 0.000 -0.003 -0.004 -0.000
19284 4 5.849 4.095 9.480 -0.002 -0.008 0.006 -0.000
565 4 3.490 12.176 0.876 -0.001 0.008 0.007 -0.000
90 4 2.268 2.972 -0.024 0.008 0.008 -0.003 -0.000
16218 4 11.670 1.855 18.317 0.002 0.003 0.002 -0.000
2521 4 4.954 6.215 10.885 -0.006 0.010 0.002 -0.000
4598 4 7.475 -0.153 16.634 -0.006 -0.004 -0.004 0.000
3700 4 9.788 6.508 11.286 -0.007 0.002 -0.001 0.000
9165 4 -4.011 5.641 14.603 -0.001 0.002 0.002 0.000
1322 4 7.414 11.384 17.366 -0.004 0.000 0.004 0.000
2018 4 10.074 5.169 13.451 -0.009 0.008 -0.002 -0.000
2166 4 10.149 9.833 16.502 0.008 -0.002 -0.004 0.000
9895 4 12.696 -0.301 19.213 0.003 0.002 0.001 -0.000
887 4 -0.198 8.357 -3.043 -0.005 -0.009 -0.004 -0.000
19625 4 5.792 0.679 -0.156 -0.000 0.008 -0.012 0.000
6516 4 9.541 14.999 13.869 -0.001 0.007 0.003 -0.000
2209 4 7.041 10.681 19.762 0.006 0.004 -0.004 0.000
19298 4 7.701 3.899 3.214 0.014 0.001 0.011 -0.000
846 4 5.127 1.131 3.348 0.004 -0.001 -0.004 -0.000
177 4 4.732 8.384 -2.644 -0.000 0.002 -0.002 0.000
86 4 0.274 9.107 8.696 0.002 0.002 -0.009 -0.000
19654 4 12.453 12.902 0.680 0.004 0.009 -0.010 -0.000
6111 4 3.571 5.698 18.907 0.004 -0.000 -0.003 0.000
1406 4 8.098 6.364 20.692 0.004 -0.011 0.003 0.000
19763 4 1.291 -2.507 5.920 0.003 -0.001 -0.002 -0.000
863 4 4.981 -1.395 16.921 -0.001 -0.003 0.003 0.000
16178 4 3.535 4.105 15.334 -0.005 0.002 0.001 0.000
5399 4 10.548 13.206 12.259 0.002 0.004 0.003 -0.000
6951 4 1.803 13.091 13.828 0.001 -0.002 -0.006 0.000
2531 4 11.821 7.101 13.492 -0.001 0.007 -0.012 -0.000
614 4 7.257 11.851 0.335 0.004 -0.000 0.001 0.000
8763 4 -2.908 4.328 16.545 0.004 0.002 -0.006 -0.000
9126 4 5.869 4.403 12.232 -0.003 -0.011 0.006 0.000
96 4 1.310 6.576 -1.677 0.003 0.005 -0.008 0.000
5360 4 0.804 10.702 12.520 -0.006 0.006 -0.003 -0.000
5439 4 6.600 6.226 3.247 -0.002 -0.000 -0.020 0.000
19490 4 4.299 4.539 -0.148 -0.004 -0.002 0.004 -0.000
12795 4 1.457 -1.415 8.560 0.000 -0.001 0.005 -0.000
940 4 9.524 13.026 7.804 -0.003 -0.001 -0.002 0.000
1731 4 1.539 5.698 6.795 0.002 -0.008 -0.012 0.000
18603 4 7.721 1.346 2.955 -0.000 0.017 0.001 -0.000
294 4 8.874 12.320 9.993 0.003 0.015 -0.006 0.000
900 4 5.780 1.669 16.244 -0.002 -0.003 -0.002 -0.000
9487 4 0.940 10.615 3.976 0.000 -0.002 -0.001 -0.000
18934 4 9.754 13.473 -0.668 0.009 -0.005 0.001 0.000
19289 4 -2.806 7.765 -2.539 -0.003 0.003 0.004 0.000
2619 4 8.997 9.759 18.942 0.011 -0.004 0.003 -0.000
691 4 13.021 10.635 2.676 -0.002 -0.001 -0.017 -0.000
2185 4 6.402 -1.380 12.261 -0.000 0.005 -0.000 -0.000
2524 4 1.767 12.903 16.994 -0.012 -0.007 0.002 -0.000
6553 4 -4.034 13.409 9.275 -0.005 0.001 -0.010 0.000
1252 4 4.736 0.055 12.293 -0.007 -0.006 0.004 -0.000
2021 4 8.493 -2.542 19.983 0.008 -0.003 -0.001 -0.000
802 4 -2.990 -3.573 14.854 0.003 0.004 0.007 -0.000
19217 4 4.148 -1.153 0.979 -0.007 0.003 -0.006 -0.000
8348 4 10.358 -4.504 -4.599 0.000 0.008 0.002 0.000
2563 4 4.339 10.864 17.931 0.007 -0.005 -0.002 -0.000
9969 4 7.904 3.144 9.157 -0.005 0.009 -0.002 0.000
491 4 2.730 7.843 2.333 0.017 -0.010 -0.008 0.000
19730 4 5.478 9.595 -0.694 -0.003 0.006 0.004 -0.000
1409 4 7.207 6.071 11.240 0.010 -0.005 0.005 -0.000
1367 4 1.232 14.937 15.393 -0.002 0.013 -0.002 -0.000
697 4 8.889 5.675 2.120 -0.008 0.012 0.004 -0.000
8330 4 8.843 0.875 0.251 -0.015 -0.008 0.008 -0.000
23469 4 -1.053 10.626 -3.171 0.000 -0.013 -0.000 0.000
19686 4 8.539 7.750 6.407 -0.014 -0.001 -0.004 -0.000
490 4 0.408 10.498 -0.837 0.005 0.009 -0.012 0.000
213 4 9.235 8.331 -2.614 0.003 0.003 -0.006 0.000
1730 4 8.690 8.309 12.579 -0.004 0.014 0.008 -0.000
1729 4 3.460 12.947 9.104 0.008 -0.005 0.003 -0.000
898 4 11.963 0.602 7.878 -0.011 0.011 -0.004 0.000
6315 4 5.091 11.421 15.616 0.013 0.004 0.000 0.000
9172 4 -4.471 12.525 2.039 -0.007 0.004 -0.002 0.000
4195 4 -2.566 3.761 -1.540 -0.004 0.008 -0.012 -0.000
5634 4 7.054 2.502 11.717 -0.006 -0.003 0.003 -0.000
19282 4 0.904 0.676 -0.410 -0.004 -0.001 -0.008 0.000
452 4 12.083 6.943 -3.792 0.002 -0.006 0.005 0.000
2416 4 -1.180 6.226 15.268 -0.007 0.003 -0.004 -0.000
10776 4 10.882 0.073 16.185 0.005 0.009 -0.003 -0.000
19406 4 -0.097 3.023 -0.907 0.004 0.008 0.005 0.000
616 4 -0.296 12.672 -2.690 -0.002 -0.001 0.004 -0.000
19806 4 7.953 10.104 -1.092 -0.012 -0.002 0.000 -0.000
6476 4 3.982 6.250 16.294 -0.004 0.007 -0.006 -0.000
9561 4 -0.313 2.057 2.288 0.013 -0.003 0.005 -0.000
87 4 4.043 -4.047 -2.691 0.001 -0.007 0.005 -0.000
3693 4 10.074 -0.743 13.705 0.010 0.003 -0.007 -0.000
983 4 11.493 4.869 11.882 -0.010 -0.005 -0.003 0.000
12396 4 4.963 10.923 7.943 0.003 0.000 0.015 -0.000
85 4 -4.096 5.784 -2.849 -0.000 0.004 -0.001 -0.000
2699 4 4.888 11.314 21.460 -0.012 0.001 0.000 -0.000
455 4 8.771 2.344 5.072 0.011 0.007 -0.003 0.000
1807 4 -2.839 11.838 20.250 -0.000 -0.004 0.002 -0.000
5471 4 -4.456 8.892 0.341 0.005 -0.000 -0.003 0.000
1734 4 -2.919 -0.016 18.693 0.001 -0.002 0.004 0.000
1260 4 3.997 2.306 1.092 0.001 0.001 -0.001 0.000
1380 4 3.779 7.131 -0.265 -0.005 0.009 0.007 0.000
1819 4 11.209 -1.424 6.785 0.004 -0.001 -0.003 -0.000
6913 4 -0.312 3.693 15.657 -0.012 0.006 -0.001 -0.000
543 4 7.857 2.344 -5.196 0.014 0.005 0.007 -0.000
1386 4 9.741 10.867 12.366 -0.003 0.004 -0.004 0.000
420 4 12.612 2.746 3.541 0.005 -0.002 0.004 -0.000
5315 4 3.364 7.696 12.225 0.003 0.005 -0.006 -0.000
9933 4 -1.435 1.276 17.145 -0.006 -0.002 -0.009 0.000
1363 4 7.136 7.867 -0.616 0.000 0.011 0.012 0.000
4073 4 -1.704 6.902 -0.846 -0.004 -0.006 0.005 -0.000
4955 4 5.469 -0.257 19.167 -0.001 0.008 -0.002 -0.000
2494 4 5.671 12.260 12.270 -0.014 0.003 -0.001 0.000
3253 4 11.264 -2.478 19.030 0.009 0.001 -0.009 -0.000
5039 4 6.568 8.514 13.980 -0.006 -0.008 -0.000 -0.000
122 4 6.156 9.544 4.227 -0.002 0.003 0.001 -0.000
2011 4 13.199 0.418 -0.244 0.009 0.001 -0.012 0.000
6877 4 1.470 4.866 19.627 0.010 -0.007 0.009 -0.000
9973 4 8.316 -1.887 14.379 -0.003 0.004 -0.017 0.000
860 4 12.846 -3.807 2.072 0.000 0.006 0.004 -0.000
3089 4 -0.917 4.674 10.006 0.002 -0.001 0.005 0.000
27570 4 0.779 -0.918 4.352 -0.006 -0.002 0.009 -0.000
19336 4 6.476 6.397 6.080 0.002 0.006 -0.001 -0.000
17854 4 3.995 -0.532 -3.840 -0.001 0.005 0.005 -0.000
214 4 12.522 4.963 2.528 -0.002 -0.004 0.007 0.000
19307 4 10.710 5.074 -2.489 0.002 0.008 -0.007 -0.000
4640 4 -1.730 12.504 -0.496 0.004 -0.001 -0.009 -0.000
1401 4 3.665 4.749 12.968 -0.011 -0.012 0.000 -0.000
44 4 3.481 0.413 -1.811 -0.003 0.000 0.004 0.000
19419 4 -2.535 1.036 -1.728 -0.004 0.009 0.008 0.000
1010 4 3.355 12.105 3.051 0.002 -0.014 0.009 0.000
6239 4 2.391 8.628 10.195 0.003 -0.003 -0.000 0.000
6119 4 3.488 5.755 8.396 0.000 -0.007 -0.015 -0.000
66 4 11.880 2.344 0.796 -0.001 -0.003 0.001 -0.000
3845 4 2.803 9.088 16.802 -0.004 -0.009 0.007 0.000
2485 4 7.118 8.813 16.545 -0.002 -0.001 -0.009 -0.000
2099 4 6.114 0.492 5.303 0.012 -0.002 0.002 0.000
6992 4 1.026 7.884 18.293 -0.007 0.007 -0.007 -0.000
4874 4 -0.545 0.711 9.593 -0.017 0.002 -0.003 0.000
1647 4 1.330 2.765 14.049 -0.007 0.009 -0.001 -0.000
1766 4 -1.084 8.554 16.216 -0.003 0.006 0.005 -0.000
487 4 1.694 3.153 -2.897 -0.002 0.003 -0.007 0.000
1611 4 -2.418 2.403 14.946 -0.002 -0.005 -0.010 -0.000
2126 4 -1.910 2.493 10.704 0.001 -0.002 -0.006 0.000
27962 4 0.191 6.940 1.694 0.003 0.003 0.007 -0.000
1379 4 12.555 7.815 20.739 0.002 0.009 0.002 0.000
19804 4 7.257 9.450 1.285 0.006 -0.005 -0.006 0.000
1290 4 -3.780 8.640 3.906 -0.004 -0.003 -0.002 0.000
7474 4 -1.020 10.390 10.163 -0.005 -0.009 0.003 0.000
4232 4 3.853 9.844 1.137 -0.002 0.014 0.003 -0.000
447 4 -1.734 5.304 1.016 -0.003 -0.004 0.004 0.000
404 4 -0.234 12.132 2.001 -0.005 -0.004 -0.008 0.000
460 4 6.425 2.907 0.727 0.001 0.009 0.002 -0.000
23632 4 2.395 8.201 7.629 0.005 -0.001 -0.004 -0.000
5473 4 -2.796 11.077 7.055 0.002 0.010 -0.013 0.000
575 4 3.832 3.872 3.719 0.002 0.007 0.001 0.000
19689 4 -3.185 4.964 3.344 0.005 -0.011 -0.002 0.000
4031 4 9.590 3.467 0.717 0.010 0.001 -0.005 0.000
18858 4 0.822 5.134 0.202 -0.005 0.001 0.006 0.000
3082 4 8.075 7.266 18.184 -0.001 0.005 -0.007 0.000
5276 4 0.045 -3.247 18.400 0.003 -0.008 0.007 0.000
1369 4 2.234 10.675 8.025 0.002 -0.002 0.004 0.000
19688 4 -3.859 3.869 1.084 0.011 -0.000 -0.008 0.000
4157 4 -1.051 4.314 4.024 -0.009 -0.005 0.001 -0.000
458 4 12.001 7.291 -1.045 0.002 -0.005 0.005 -0.000
2415 4 11.408 -2.477 12.210 0.005 -0.009 -0.008 -0.000
281 4 1.197 10.073 1.450 -0.001 -0.006 0.003 0.000
1692 4 -2.119 4.682 -4.272 -0.008 0.003 -0.000 0.000
15188 4 -3.948 7.023 16.916 -0.000 -0.001 -0.012 -0.000
3307 4 1.683 2.634 16.857 -0.003 0.000 0.002 0.000
18940 4 10.954 1.145 -1.768 -0.004 -0.003 -0.005 -0.000
10379 4 7.772 -0.968 7.485 -0.005 0.006 -0.003 0.000
11929 4 -0.560 -0.523 15.030 -0.004 -0.001 -0.003 -0.000
8644 4 4.636 8.353 6.157 -0.004 0.007 -0.001 0.000
901 4 10.024 12.066 -2.561 -0.010 -0.004 0.008 0.000
526 4 0.643 10.443 6.236 0.005 0.001 0.011 0.000
2042 4 7.291 -2.377 10.015 0.004 0.007 0.002 -0.000
2892 4 4.659 8.782 20.803 -0.005 0.009 -0.009 0.000
5232 4 -3.251 5.561 9.854 -0.001 -0.001 0.004 0.000
18442 4 -0.887 1.337 4.900 -0.005 -0.010 -0.009 0.000
405 4 0.810 10.603 14.978 -0.002 0.000 -0.001 -0.000
206 4 11.944 10.020 11.899 0.004 -0.000 0.012 0.000
1412 4 11.274 7.237 2.286 0.004 -0.003 -0.007 -0.000
3048 4 -0.666 13.339 14.984 -0.006 -0.007 0.005 0.000
504 4 7.348 0.340 13.594 -0.005 -0.005 -0.000 -0.000
129 4 -0.302 6.930 5.577 0.003 0.005 0.012 0.000
3029 4 10.479 6.258 17.157 -0.004 0.004 -0.003 -0.000
2859 4 6.279 -2.229 18.619 -0.010 -0.002 0.011 0.000
2650 4 -0.441 12.004 18.842 -0.001 0.002 0.004 0.000
3410 4 2.947 9.210 19.297 0.006 -0.002 0.010 -0.000
498 4 4.632 13.175 -3.451 -0.000 -0.010 -0.004 -0.000
9164 4 1.502 13.413 2.393 0.001 0.002 -0.001 -0.000
1053 4 3.932 12.796 6.633 0.000 0.002 0.002 0.000
4995 4 1.189 2.739 9.279 -0.007 0.004 0.003 0.000
5036 4 8.176 10.258 -3.685 -0.000 0.016 0.000 0.000
23399 4 -3.597 11.006 9.897 -0.016 0.009 0.008 0.000
1413 4 12.734 12.086 12.318 -0.002 -0.007 -0.007 0.000
521 4 -2.227 13.641 3.085 -0.009 -0.001 -0.000 -0.000
10374 4 3.495 2.538 12.886 0.004 0.000 0.017 0.000
5080 4 1.020 14.199 -4.004 0.003 -0.001 -0.003 -0.000
3405 4 -1.694 11.028 16.181 0.012 -0.003 0.014 0.000
2578 4 12.116 7.856 17.701 -0.004 -0.001 0.002 -0.000
2085 4 0.764 6.620 9.028 0.011 0.003 -0.008 -0.000
27886 4 0.027 0.810 -2.514 -0.006 0.004 -0.007 -0.000
4517 4 2.271 -0.232 6.400 0.003 0.001 0.007 -0.000
3250 4 12.420 4.431 17.807 0.010 0.005 0.009 0.000
135 4 9.430 -3.025 -2.871 -0.006 -0.009 -0.013 -0.000
5393 4 0.216 8.334 -0.379 0.000 -0.004 -0.004 -0.000
3132 4 -0.213 5.585 17.227 0.004 0.005 0.002 0.000
815 4 8.640 -1.223 11.833 -0.002 0.004 0.003 -0.000
58 4 14.317 -0.995 1.472 -0.006 -0.007 -0.001 0.000
2010 4 13.451 13.624 5.316 -0.002 0.008 -0.006 -0.000
823 4 11.877 10.051 5.061 0.004 0.004 -0.003 -0.000
18530 4 5.762 3.217 -3.489 -0.001 0.008 -0.001 0.000
8733 4 3.744 -1.105 4.521 0.004 -0.001 0.005 0.000
2061 4 13.495 4.814 5.279 0.006 0.001 -0.008 0.000
8761 4 -1.101 -0.424 2.568 -0.001 -0.009 -0.006 0.000
19722 4 -1.777 8.197 1.104 0.015 -0.001 0.003 0.000
9542 4 2.249 0.333 13.207 0.001 0.002 -0.004 0.000
4480 4 -5.449 6.772 4.864 0.002 0.002 -0.006 -0.000
3 4 -3.188 2.858 18.678 0.004 0.000 -0.002 -0.000
9124 4 -2.481 3.951 8.023 0.006 -0.008 0.008 0.000
282 4 1.572 5.897 -4.204 0.001 0.003 0.004 0.000
1293 4 1.494 5.125 14.625 0.001 -0.009 0.005 -0.000
8681 4 -1.934 -0.721 0.263 -0.002 0.001 0.004 -0.000
19405 4 -1.076 8.319 3.560 0.006 0.002 0.003 -0.000
2028 4 9.354 -1.067 1.941 -0.005 -0.000 0.021 -0.000
171 4 1.548 8.580 -4.659 0.002 0.012 -0.002 0.000
6559 4 -0.449 9.454 19.381 -0.001 -0.008 -0.007 -0.000
8374 4 -2.023 2.222 0.726 0.000 0.002 0.008 0.000
2243 4 -0.743 3.527 18.569 -0.006 -0.001 -0.006 0.000
18973 4 5.007 10.765 -3.354 0.005 -0.011 -0.008 0.000
1695 4 11.434 7.963 7.182 -0.006 -0.006 -0.004 -0.000
5715 4 -3.342 8.581 14.727 -0.001 0.003 0.003 0.000
18978 4 8.808 2.523 -2.543 0.002 0.008 0.001 0.000
1243 4 3.562 1.130 17.844 0.007 -0.003 -0.005 -0.000
7159 4 7.702 10.397 14.700 0.002 -0.004 0.008 0.000
811 4 2.330 1.576 2.702 -0.002 -0.014 -0.001 0.000
3381 4 9.448 2.413 17.587 0.000 -0.001 -0.002 0.000
10775 4 10.773 3.568 8.013 0.001 -0.011 -0.009 0.000
19608 4 1.047 -4.165 8.728 0.004 0.009 0.001 -0.000
9970 4 -2.129 -2.982 19.718 0.007 0.001 0.008 -0.000
12393 4 2.356 5.969 10.739 0.006 0.004 -0.001 0.000
3421 4 12.998 10.622 17.669 0.004 0.004 -0.000 0.000
2847 4 5.821 5.604 20.299 0.003 -0.002 -0.005 -0.000
27950 4 13.526 0.222 -3.272 -0.000 0.001 -0.005 -0.000
11098 4 3.564 -2.327 12.747 -0.004 -0.001 -0.002 -0.000
6560 4 -1.165 8.363 13.382 0.008 -0.001 0.009 0.000
5677 4 -2.159 12.276 11.102 0.006 0.014 -0.002 -0.000
2164 4 1.422 11.461 10.127 -0.002 0.001 -0.005 -0.000
2052 4 10.676 -0.944 -3.783 -0.011 0.005 0.006 0.000
1012 4 10.915 9.470 14.169 -0.003 0.004 0.012 0.000
19349 4 11.977 14.202 -2.143 0.003 0.002 0.002 0.000
1096 4 4.852 11.946 -1.031 -0.001 0.003 -0.007 0.000
8362 4 0.372 -3.433 3.426 -0.001 -0.003 -0.002 -0.000
1422 4 10.699 11.861 14.358 0.006 0.005 0.007 -0.000
18891 4 -0.491 4.968 -2.418 -0.000 0.006 0.005 0.000
9097 4 2.247 -0.636 10.857 -0.003 0.004 -0.002 0.000
9972 4 -5.422 -0.910 12.456 -0.006 0.007 -0.008 -0.000
5706 4 8.301 4.895 18.895 -0.003 -0.002 0.003 -0.000
1340 4 11.411 2.897 5.710 -0.014 0.005 -0.002 -0.000
505 4 11.350 11.248 7.097 -0.008 -0.009 -0.009 0.000
6550 4 3.494 1.912 5.497 0.007 -0.005 0.007 0.000
27816 4 5.185 -1.756 -1.324 -0.003 -0.010 0.014 0.000
1830 4 11.678 1.450 20.976 0.005 -0.004 0.003 -0.000
9922 4 6.364 -2.044 5.612 0.004 -0.001 -0.003 -0.000
949 4 13.215 6.436 7.201 -0.007 -0.001 0.004 0.000
4520 4 -0.552 -1.303 -1.310 0.004 -0.005 0.001 0.000
2886 4 12.588 4.093 14.159 0.001 0.002 0.005 -0.000
1411 4 5.437 14.406 1.027 0.005 0.002 0.003 -0.000
3011 4 -4.871 12.288 12.195 0.006 0.011 0.004 0.000
1402 4 -4.000 10.143 17.139 0.007 -0.011 -0.005 -0.000
5068 4 -2.684 6.706 12.566 -0.003 -0.001 -0.005 0.000
2848 4 2.068 5.215 17.184 -0.003 -0.005 -0.011 -0.000
10296 4 1.689 -1.795 14.797 0.005 -0.002 -0.007 0.000
11089 4 0.303 -4.485 21.178 0.007 0.004 -0.003 0.000
6673 4 -2.926 12.628 17.749 0.000 -0.000 0.001 -0.000
91 4 10.110 9.981 2.381 -0.000 -0.004 -0.007 -0.000
2076 4 13.659 12.528 9.137 -0.000 -0.008 -0.005 -0.000
2022 4 9.264 10.325 7.759 0.001 -0.005 -0.000 0.000
563 4 8.338 14.552 1.404 0.001 0.004 -0.008 0.000
5037 4 -3.314 12.590 4.930 -0.002 0.006 0.003 0.000
2267 4 10.193 3.353 19.744 0.001 -0.013 -0.003 -0.000
2422 4 2.232 -2.412 17.689 -0.002 0.001 -0.001 -0.000
2007 4 4.797 -0.675 9.803 0.014 0.003 0.002 0.000
6589 4 1.112 7.883 15.713 0.002 0.007 -0.002 -0.000
9568 4 -0.424 -2.383 9.814 -0.003 0.003 0.001 -0.000
1608 4 -1.686 4.319 12.623 0.010 0.007 -0.009 -0.000
247 4 11.093 11.892 3.740 -0.010 -0.008 0.005 0.000
9577 4 10.528 -1.496 9.549 -0.002 0.005 0.016 -0.000
7354 4 -3.634 14.085 20.474 -0.009 -0.002 -0.011 0.000
2498 4 12.735 6.861 4.298 -0.016 -0.005 0.006 -0.000
9182 4 6.880 -2.854 16.147 -0.012 -0.004 0.003 -0.000
4678 4 -1.025 12.156 5.876 -0.007 -0.004 -0.000 -0.000
27926 4 -1.427 -2.820 2.195 0.002 -0.008 -0.006 -0.000
925 4 -3.895 3.079 9.730 0.008 0.000 -0.007 0.000
4557 4 -2.243 8.867 6.493 -0.004 0.001 0.007 -0.000
1291 4 11.313 11.757 19.205 0.004 -0.007 -0.008 0.000
571 4 4.979 -2.947 2.790 -0.001 0.008 -0.005 0.000
5316 4 0.208 13.675 4.320 -0.003 0.009 0.003 0.000
2459 4 -1.108 -1.405 17.205 0.007 0.004 0.000 -0.000
648 4 1.496 10.137 -2.912 -0.004 -0.005 0.002 -0.000
7395 4 -1.844 7.746 21.006 0.006 0.001 0.002 0.000
2093 4 1.443 0.088 17.041 -0.001 -0.009 -0.009 0.000
13594 4 -3.225 -0.117 15.966 0.007 -0.017 0.011 -0.000
923 4 -3.450 12.248 15.267 -0.007 0.004 0.005 0.000
5631 4 -1.062 1.225 12.968 -0.005 0.007 -0.007 0.000
217 4 12.505 -3.997 5.423 -0.007 0.013 0.010 -0.000
7717 4 3.279 -1.173 19.612 0.003 0.008 -0.005 -0.000
1823 4 13.851 -3.888 13.971 -0.003 -0.003 -0.013 -0.000
1810 4 3.027 12.598 11.874 0.007 0.009 0.005 0.000
9535 4 3.561 -2.492 7.244 -0.001 0.001 0.000 0.000
1621 4 11.953 -2.068 16.775 -0.004 0.003 -0.005 0.000
28 4 10.248 11.048 0.331 0.012 0.007 0.013 -0.000
8373 4 6.252 -2.396 0.723 -0.010 -0.006 -0.001 -0.000
2101 4 9.658 1.860 12.481 -0.004 0.010 0.001 0.000
19764 4 -2.770 10.832 1.773 0.007 -0.006 -0.004 0.000
19655 4 -3.483 -2.798 0.529 0.003 -0.008 0.002 0.000
2860 4 8.707 -0.486 4.668 0.006 0.002 -0.010 -0.000
3260 4 8.490 1.407 19.894 -0.000 0.001 0.009 -0.000
2576 4 2.646 12.023 19.195 -0.002 0.002 -0.002 0.000
2449 4 -3.626 -2.467 17.366 0.014 -0.000 -0.003 0.000
1455 4 13.596 9.292 7.322 -0.011 -0.002 0.012 -0.000
19230 4 11.903 -1.677 0.456 -0.010 -0.004 0.003 -0.000
7276 4 -0.328 -3.175 13.764 -0.009 0.010 0.003 0.000
4461 4 -4.589 7.075 7.406 0.003 0.002 0.000 0.000
19618 4 11.242 9.752 -2.225 0.003 0.011 0.000 -0.000
1407 4 11.046 14.741 5.280 0.000 0.006 -0.000 0.000
1011 4 1.236 12.921 6.558 -0.003 -0.001 0.000 -0.000
1286 4 6.321 -1.104 3.150 0.013 0.006 0.005 0.000
4040 4 0.484 -1.954 0.758 0.004 0.006 -0.010 -0.000
1693 4 9.133 10.119 5.033 0.001 0.005 0.000 0.000
496 4 3.501 1.864 -4.074 -0.003 0.004 0.006 -0.000
564 4 -0.802 -0.360 6.676 -0.007 0.008 -0.005 -0.000
2561 4 -3.723 9.479 19.626 0.008 0.001 -0.002 0.000
3053 4 -1.433 14.359 19.881 -0.005 -0.003 -0.009 -0.000
1694 4 9.143 -3.546 16.887 -0.007 -0.005 -0.009 0.000
19385 4 14.129 13.865 2.617 -0.005 0.002 -0.004 -0.000
19213 4 -3.082 -1.321 -2.116 -0.002 -0.010 -0.003 -0.000
406 4 13.058 5.377 -1.529 -0.006 0.005 -0.003 0.000
1779 4 10.800 14.181 -4.014 0.000 0.008 -0.009 0.000
19504 4 7.361 13.892 -1.134 0.002 -0.003 0.001 -0.000
18496 4 13.008 11.352 -3.858 0.003 -0.003 -0.005 0.000
23707 4 -2.115 9.759 -0.977 -0.005 0.011 0.010 -0.000
2051 4 13.911 7.719 9.259 0.003 0.016 -0.007 -0.000
2506 4 10.789 -3.277 15.018 -0.002 -0.006 -0.005 -0.000
1220 4 11.765 1.263 14.107 0.006 0.005 0.000 0.000
13597 4 2.711 -4.126 4.186 0.005 0.012 0.002 0.000
1827 4 12.579 5.228 9.575 0.008 0.003 0.006 0.000
2178 4 12.568 10.426 15.356 0.007 -0.004 -0.005 -0.000
19699 4 8.518 4.798 -3.310 -0.011 -0.003 0.007 0.000
2215 4 12.228 9.130 0.826 -0.006 -0.008 0.003 -0.000
27574 4 1.138 -1.062 -3.924 0.008 -0.005 0.012 -0.000
6552 4 -3.297 9.099 12.100 0.002 -0.004 -0.002 -0.000
10684 4 -3.359 -0.718 8.631 -0.001 -0.003 0.003 -0.000
1321 4 -4.754 4.086 12.010 -0.006 -0.001 -0.005 0.000
1337 4 6.082 -3.447 14.044 0.003 0.000 0.008 0.000
13997 4 -3.064 -1.174 13.792 0.001 -0.002 0.002 0.000
1404 4 -2.396 14.821 15.840 0.002 -0.002 0.011 -0.000
11180 4 14.520 -0.535 20.312 -0.009 -0.005 0.002 0.000
469 4 12.357 8.748 3.367 -0.004 0.003 -0.007 0.000
3062 4 14.042 1.617 18.939 -0.000 0.011 -0.012 -0.000
5751 4 -4.437 13.696 7.028 0.001 0.006 -0.002 -0.000
1604 4 3.211 1.180 20.714 0.004 -0.016 0.002 0.000
18962 4 1.181 12.781 0.241 0.000 0.001 0.002 0.000
449 4 -2.234 8.080 18.386 -0.003 0.006 0.003 0.000
3892 4 4.441 13.377 17.452 0.002 0.002 -0.002 -0.000
59 4 12.668 11.193 -1.188 -0.006 -0.009 0.007 -0.000
18621 4 13.256 -1.807 -1.864 -0.002 -0.007 -0.012 0.000
1403 4 4.466 13.558 13.705 0.001 -0.006 0.006 -0.000
3333 4 9.952 7.789 19.411 0.005 -0.003 0.004 -0.000
2930 4 -4.973 11.894 19.173 0.002 -0.004 -0.000 0.000
2133 4 13.100 2.907 7.856 0.005 0.002 -0.001 -0.000
4949 4 -4.450 14.910 4.392 0.006 0.004 0.013 -0.000
31999 4 -3.925 0.646 0.858 0.013 0.003 0.010 0.000
202 4 -3.265 12.632 -2.521 -0.008 0.009 0.002 -0.000
173 4 11.612 9.181 9.457 0.011 -0.001 0.003 0.000
27937 4 -1.319 -1.924 4.741 0.000 0.008 0.004 -0.000
528 4 -1.547 -3.374 11.616 -0.002 -0.003 -0.002 0.000
2903 4 13.192 3.236 20.133 0.002 -0.011 -0.003 0.000
19309 4 6.971 7.291 -3.417 0.004 0.002 0.003 -0.000
527 4 -0.689 2.783 -3.387 -0.005 0.002 0.003 -0.000
13199 4 1.902 -3.030 -2.371 0.006 -0.007 0.004 -0.000
2218 4 2.369 15.150 9.643 -0.001 0.013 -0.002 0.000
216 4 14.269 9.076 5.149 -0.005 0.005 -0.003 0.000
5800 4 8.148 11.829 2.795 0.010 -0.003 -0.005 0.000
11506 4 14.266 0.543 12.337 -0.009 -0.008 -0.005 -0.000
6277 4 0.359 13.753 10.735 -0.003 0.001 -0.005 -0.000
2089 4 8.582 12.976 18.587 -0.001 -0.006 -0.006 -0.000
2896 4 9.221 13.107 16.145 -0.002 -0.001 0.003 -0.000
1414 4 2.472 15.161 12.365 0.001 0.006 0.003 0.000
1777 4 14.258 6.765 13.445 -0.002 -0.000 0.002 -0.000
2058 4 11.506 5.822 19.369 -0.002 -0.007 -0.003 -0.000
486 4 -3.612 2.959 -3.511 0.008 -0.004 -0.001 0.000
9166 4 -0.553 -3.209 -3.362 0.001 0.004 0.011 -0.000
10376 4 1.378 -2.636 11.641 -0.007 0.005 0.006 0.000
23228 4 -3.007 2.721 5.525 -0.007 0.003 0.005 -0.000
3262 4 12.649 13.945 20.542 -0.004 0.006 0.009 -0.000
27963 4 -3.604 -0.729 2.406 0.003 -0.001 0.007 0.000
1297 4 12.687 -1.045 13.696 0.003 -0.004 -0.005 0.000
1216 4 8.257 -4.712 14.275 -0.000 -0.005 0.000 -0.000
192 4 -4.100 10.097 -2.283 0.000 0.003 0.001 0.000
5639 4 -3.225 -2.260 6.354 0.003 0.011 -0.002 -0.000
844 4 2.477 -2.796 2.247 0.013 -0.006 -0.003 0.000
11488 4 -4.681 1.243 20.439 0.003 0.005 -0.002 0.000
4951 4 -3.605 8.518 9.039 0.004 -0.008 0.002 -0.000
2081 4 -0.282 0.374 18.854 -0.000 0.003 -0.004 -0.000
3525 4 8.840 14.830 11.337 -0.003 0.003 -0.005 0.000
10334 4 -4.095 -3.066 12.452 0.005 -0.013 0.010 0.000
2579 4 9.369 14.419 20.750 0.007 -0.003 -0.003 0.000
2568 4 -5.114 4.263 21.061 -0.007 0.002 -0.010 -0.000
562 4 5.491 -2.626 -4.339 0.001 0.008 0.007 -0.000
27979 4 4.278 -3.852 0.124 -0.005 0.003 0.005 0.000
176 4 10.634 5.695 -4.967 -0.006 -0.012 -0.007 0.000
659 4 12.831 6.546 15.739 -0.008 0.002 0.005 0.000
1408 4 -2.054 14.348 -4.463 0.005 -0.008 0.001 0.000
9530 4 7.803 -3.658 12.110 -0.014 0.000 -0.003 -0.000
894 4 10.789 -2.174 3.886 -0.007 0.001 0.003 -0.000
3372 4 9.749 -0.727 21.021 -0.002 0.000 0.004 0.000
9122 4 -4.053 1.872 16.760 -0.005 0.001 -0.009 0.000
1004 4 1.971 12.332 -2.373 -0.002 -0.002 -0.005 0.000
4074 4 -3.208 1.631 3.360 0.011 -0.001 0.006 -0.000
23831 4 5.101 14.489 8.344 -0.011 -0.001 0.005 0.000
1241 4 -5.282 -2.417 19.802 0.014 -0.002 0.014 -0.000
1814 4 -2.308 12.941 13.168 -0.008 -0.006 -0.006 -0.000
895 4 8.014 -3.618 3.285 -0.001 -0.002 -0.009 -0.000
3456 4 11.963 14.505 10.566 -0.002 -0.002 -0.006 0.000
6515 4 0.788 1.470 21.119 -0.003 0.010 -0.002 -0.000
1602 4 2.219 -4.057 19.424 0.002 0.004 -0.002 -0.000
19647 4 10.189 3.020 -4.709 0.003 -0.005 0.001 0.000
19739 4 13.162 2.247 -1.826 -0.006 -0.004 -0.012 0.000
1648 4 0.279 -3.330 15.876 0.003 0.004 -0.003 -0.000
6472 4 -0.614 -1.511 20.582 -0.012 -0.001 0.006 0.000
1376 4 11.818 14.954 2.997 0.008 0.007 -0.008 -0.000
20349 4 -0.798 13.930 17.640 -0.006 0.001 -0.003 0.000
3334 4 -1.470 5.562 19.869 0.004 0.011 -0.009 -0.000
945 4 14.666 0.463 7.794 0.002 -0.001 0.006 0.000
2420 4 5.359 -3.849 11.306 0.006 -0.001 -0.004 0.000
19416 4 5.065 5.712 -4.418 -0.003 0.003 -0.000 -0.000
18980 4 14.279 10.573 0.754 0.004 -0.001 0.005 0.000
6637 4 -4.680 14.846 11.081 0.004 0.004 0.008 0.000
3801 4 6.239 -1.608 21.214 -0.004 0.010 -0.009 0.000
2697 4 3.794 14.369 19.756 0.004 0.002 -0.007 0.000
2444 4 0.553 7.258 20.810 0.004 0.001 -0.010 0.000
1699 4 14.032 8.651 11.771 0.005 -0.009 -0.004 0.000
2 4 -3.791 -3.217 3.680 -0.005 -0.001 -0.001 -0.000
5273 4 -4.203 11.070 3.614 -0.005 -0.007 -0.002 -0.000
13152 4 -4.313 1.022 13.158 -0.011 -0.000 -0.004 0.000
9082 4 -3.437 -3.770 8.057 0.007 0.010 -0.002 -0.000
3927 4 5.948 12.802 19.321 0.004 -0.002 0.010 -0.000
2210 4 6.831 8.241 20.259 0.012 0.013 -0.009 -0.000
140 4 5.440 13.628 3.501 -0.003 -0.011 -0.006 0.000
3001 4 -4.094 14.844 18.029 -0.013 0.001 0.002 0.000
2577 4 9.266 11.742 20.576 0.002 0.006 -0.001 0.000
1092 4 4.730 14.806 10.777 -0.005 0.003 0.009 0.000
1829 4 12.993 12.799 14.811 -0.014 -0.011 -0.000 0.000
2445 4 -4.015 5.434 18.764 -0.009 0.002 -0.003 0.000
13588 4 -5.169 7.157 12.812 -0.010 -0.006 0.009 -0.000
19693 4 0.810 1.396 -4.708 0.005 0.005 -0.005 0.000
8762 4 3.574 -2.814 10.059 0.004 0.009 -0.003 -0.000
1702 4 13.637 6.344 18.325 0.002 0.007 -0.006 -0.000
806 4 -4.523 3.328 14.554 -0.001 -0.003 -0.000 -0.000
3143 4 10.850 10.078 21.097 -0.004 -0.008 0.004 -0.000