ITEM: TIMESTEP
9000
ITEM: NUMBER OF ATOMS
32000
ITEM: BOX BOUNDS pp pp pp
-5.005355 75.485355
-4.760340 75.240340
-5.697756 76.177756
ITEM: ATOMS id type x y z vx vy vz q
10 4 -0.465 -1.639 -2.432 0.005 -0.003 -0.004 0.000
87 4 4.659 4.833 -5.346 0.003 0.003 -0.003 0.000
90 4 -0.759 5.918 4.454 0.014 -0.009 -0.001 0.000
91 4 6.539 8.252 -0.684 -0.005 -0.003 -0.006 -0.000
98 4 7.117 0.786 -5.057 0.003 -0.005 0.009 0.000
99 4 12.186 -0.254 -4.455 -0.005 0.009 -0.016 0.000
123 4 -3.661 12.343 2.397 -0.004 0.007 -0.010 -0.000
126 4 1.053 12.918 3.394 0.002 -0.001 -0.002 -0.000
131 4 5.773 10.068 1.936 -0.003 0.005 -0.004 0.000
138 4 10.091 8.898 1.359 -0.002 0.002 -0.012 0.000
139 4 14.042 4.850 -4.639 -0.002 0.006 -0.003 -0.000
174 4 1.337 9.667 0.365 0.004 -0.005 0.010 -0.000
179 4 10.988 8.904 -1.428 -0.006 0.001 0.002 -0.000
406 4 1.781 3.546 2.845 0.000 -0.005 -0.001 0.000
445 4 -0.029 -1.232 0.541 -0.008 0.007 -0.001 0.000
447 4 -1.337 3.764 -1.440 -0.002 -0.007 -0.005 -0.000
450 4 6.295 -2.627 7.873 -0.005 -0.005 0.006 0.000
452 4 6.089 2.034 -0.602 0.006 -0.008 -0.001 0.000
454 4 3.137 2.075 -1.702 0.015 -0.009 -0.008 0.000
458 4 11.071 0.080 -0.196 0.009 -0.005 0.005 -0.000
460 4 11.973 3.765 -3.141 0.001 -0.006 0.009 0.000
486 4 0.398 0.803 -1.094 -0.003 -0.003 -0.003 0.000
487 4 3.660 5.409 1.881 -0.003 -0.003 -0.010 0.000
488 4 1.716 10.054 -2.702 -0.005 -0.004 0.003 0.000
490 4 -1.032 7.118 2.172 0.001 0.001 0.003 0.000
494 4 4.571 0.929 1.882 -0.013 -0.004 -0.005 0.000
495 4 4.078 0.437 -4.645 -0.003 0.006 0.005 -0.000
497 4 13.519 -0.561 1.602 0.006 0.008 0.009 -0.000
498 4 7.974 2.220 -3.330 0.002 0.001 -0.000 0.000
525 4 -4.082 4.717 1.974 -0.012 -0.008 0.006 0.000
527 4 -0.116 2.908 0.083 -0.003 -0.000 -0.001 -0.000
529 4 -2.327 9.458 -0.270 -0.009 0.002 0.003 0.000
531 4 2.236 7.430 -0.137 -0.011 -0.010 0.003 -0.000
532 4 0.941 4.738 -4.482 0.010 -0.000 0.001 -0.000
533 4 8.861 7.481 -0.537 -0.001 -0.002 0.002 -0.000
538 4 14.068 13.271 -1.180 -0.004 0.003 -0.007 0.000
539 4 7.552 4.855 8.060 0.008 -0.006 -0.001 0.000
563 4 3.498 10.639 2.302 -0.007 0.010 -0.000 -0.000
566 4 -3.564 9.965 1.813 -0.006 0.012 -0.004 0.000
567 4 -1.601 12.866 4.079 -0.009 -0.002 -0.009 -0.000
571 4 4.323 3.279 0.587 -0.008 -0.012 0.004 0.000
573 4 7.728 13.197 4.392 0.006 0.004 -0.002 -0.000
574 4 9.738 4.508 -1.087 -0.011 0.003 0.005 -0.000
575 4 0.595 5.694 0.881 0.003 0.007 -0.004 -0.000
576 4 4.533 6.736 -0.833 -0.003 -0.002 -0.006 -0.000
804 4 -3.071 7.761 1.064 -0.012 -0.009 -0.008 -0.000
810 4 1.360 7.312 9.237 -0.009 -0.004 -0.002 -0.000
816 4 6.244 -2.096 0.801 0.003 -0.009 -0.005 0.000
847 4 2.686 0.193 4.370 -0.001 0.008 0.013 0.000
850 4 -1.184 0.646 1.093 -0.001 0.001 -0.003 0.000
854 4 5.130 10.539 8.393 0.001 0.007 0.010 -0.000
855 4 4.594 -1.574 3.135 0.006 0.012 0.003 0.000
860 4 10.421 0.790 -3.480 0.003 0.000 -0.009 0.000
885 4 -4.937 3.422 4.415 -0.010 -0.018 0.001 -0.000
889 4 -0.421 8.622 4.118 -0.008 0.008 -0.002 0.000
890 4 4.180 1.487 6.781 0.009 -0.005 0.004 -0.000
891 4 0.941 6.097 11.336 0.004 0.004 -0.005 0.000
892 4 6.450 3.796 4.025 -0.006 -0.005 0.002 0.000
893 4 -0.294 7.786 -1.008 -0.002 -0.013 0.003 -0.000
894 4 7.574 1.054 4.569 0.001 -0.008 0.004 0.000
895 4 8.782 1.112 -0.051 -0.001 -0.002 -0.007 0.000
896 4 9.624 4.181 5.733 0.004 -0.013 0.000 -0.000
897 4 11.771 -1.761 6.151 0.006 -0.002 -0.002 0.000
898 4 13.262 5.168 3.449 0.005 -0.005 -0.001 0.000
899 4 12.429 6.270 5.280 0.002 -0.002 -0.000 -0.000
900 4 10.481 4.585 2.960 -0.003 0.008 0.006 0.000
923 4 -1.975 11.654 6.999 -0.008 -0.000 0.001 0.000
927 4 4.383 5.014 5.370 0.009 0.005 -0.001 -0.000
928 4 -0.757 9.064 1.184 0.013 -0.007 -0.006 0.000
929 4 -1.181 4.407 2.219 0.011 -0.012 -0.006 -0.000
930 4 3.735 13.529 10.502 -0.001 0.004 0.004 0.000
931 4 8.066 4.884 -3.020 -0.011 -0.000 0.004 -0.000
932 4 7.639 3.467 -0.710 -0.007 0.008 -0.016 -0.000
933 4 6.200 4.507 1.493 0.007 -0.008 -0.011 0.000
935 4 3.127 4.067 -3.268 -0.009 -0.007 0.005 -0.000
938 4 7.816 9.677 0.759 -0.011 0.010 -0.002 0.000
939 4 7.708 11.000 7.310 0.006 0.014 0.006 -0.000
965 4 -2.143 8.868 6.009 -0.008 0.002 -0.002 0.000
969 4 -0.371 9.963 7.589 0.000 0.002 0.004 -0.000
971 4 6.528 10.114 10.007 0.015 0.002 0.004 -0.000
972 4 5.969 10.609 -1.255 -0.002 -0.006 -0.003 0.000
974 4 7.136 10.619 4.703 0.006 -0.005 -0.007 0.000
975 4 10.838 8.968 5.162 0.002 0.005 -0.006 0.000
976 4 8.019 11.900 2.235 0.003 -0.011 -0.002 -0.000
1206 4 3.105 -3.506 3.423 -0.011 0.001 -0.015 -0.000
1208 4 4.258 0.176 8.718 0.002 0.004 -0.002 0.000
1210 4 -1.204 -0.089 10.637 0.002 0.007 -0.001 0.000
1212 4 9.350 1.455 7.572 -0.008 -0.005 0.006 0.000
1216 4 11.825 6.412 9.782 0.001 -0.006 0.001 0.000
1218 4 11.210 4.405 10.041 -0.013 -0.002 0.011 -0.000
1244 4 0.371 0.642 8.858 0.002 -0.013 0.005 0.000
1245 4 -1.561 2.480 13.559 -0.005 0.002 -0.003 0.000
1248 4 -0.618 -1.146 6.402 -0.006 -0.003 -0.003 0.000
1249 4 10.014 0.488 5.269 -0.006 -0.000 0.003 0.000
1250 4 9.830 0.787 12.140 -0.009 0.001 -0.005 -0.000
1252 4 0.878 1.545 5.350 0.004 0.006 -0.005 0.000
1254 4 8.612 8.776 6.227 0.007 0.012 0.008 0.000
1255 4 8.721 -4.120 6.040 -0.008 -0.000 0.005 0.000
1256 4 12.095 4.771 0.740 0.009 0.008 -0.003 -0.000
1257 4 11.623 2.398 8.234 0.003 0.006 -0.005 0.000
1258 4 7.582 2.538 6.352 0.009 -0.002 0.006 -0.000
1285 4 -0.996 2.171 6.719 0.006 0.004 -0.008 -0.000
1286 4 1.482 6.868 5.491 -0.014 0.002 -0.002 -0.000
1287 4 -0.533 3.238 9.083 0.011 -0.006 -0.002 -0.000
1288 4 -1.779 12.928 12.132 0.004 0.001 0.002 -0.000
1289 4 8.277 -2.008 9.298 0.008 0.009 -0.001 0.000
1291 4 5.498 12.168 6.195 0.000 0.002 0.006 -0.000
1292 4 -0.982 5.250 10.106 -0.001 -0.011 0.004 0.000
1293 4 -3.463 1.866 9.468 0.003 -0.007 0.003 -0.000
1295 4 10.483 2.450 0.879 0.003 -0.004 -0.004 -0.000
1296 4 2.723 2.744 5.559 -0.002 -0.001 0.001 0.000
1297 4 7.089 5.370 5.495 -0.004 -0.004 0.001 0.000
1298 4 11.116 7.704 7.593 0.008 0.005 -0.005 0.000
1300 4 14.058 4.694 6.684 0.007 -0.001 0.001 0.000
1324 4 1.472 9.330 6.136 0.007 0.018 -0.003 0.000
1327 4 3.087 12.030 8.263 -0.002 0.009 -0.004 -0.000
1328 4 -1.015 11.193 2.337 -0.020 -0.002 -0.012 -0.000
1329 4 5.590 6.274 3.599 0.009 0.004 0.000 0.000
1330 4 -2.894 5.322 8.621 0.002 -0.001 -0.007 0.000
1331 4 3.996 7.834 2.172 0.008 -0.013 -0.004 -0.000
1333 4 9.364 -1.175 6.687 0.010 -0.003 0.001 0.000
1334 4 7.705 7.128 9.986 0.001 -0.008 0.001 0.000
1335 4 5.170 3.913 7.427 -0.006 0.003 0.000 -0.000
1336 4 6.803 7.336 2.020 -0.004 -0.001 -0.003 0.000
1337 4 6.654 2.602 8.889 -0.001 -0.000 -0.001 0.000
1338 4 3.576 7.208 7.142 -0.009 -0.002 -0.005 -0.000
1365 4 -3.275 11.096 4.442 -0.007 -0.004 0.005 -0.000
1367 4 -3.998 13.507 14.776 -0.010 -0.002 -0.013 0.000
1370 4 0.842 14.805 10.488 -0.000 0.007 -0.000 -0.000
1371 4 4.027 3.725 3.524 -0.013 0.002 -0.000 0.000
1373 4 8.319 4.960 3.277 -0.007 0.002 -0.005 -0.000
1374 4 10.969 10.345 7.366 0.003 -0.000 -0.003 0.000
1375 4 5.991 8.978 6.445 -0.009 0.010 0.009 -0.000
1377 4 8.341 5.317 1.184 -0.007 -0.009 0.002 0.000
1610 4 1.492 3.660 10.205 0.002 -0.009 0.001 0.000
1612 4 10.080 1.346 9.960 -0.008 0.000 0.000 -0.000
1618 4 13.720 4.502 9.080 0.009 0.004 0.004 -0.000
1643 4 1.083 1.862 17.420 -0.001 -0.016 -0.016 0.000
1644 4 0.375 1.954 11.850 -0.005 0.001 -0.009 -0.000
1645 4 -1.569 -1.593 14.285 -0.007 0.001 0.012 -0.000
1646 4 0.893 4.403 13.798 0.009 0.007 -0.003 0.000
1647 4 5.153 1.689 10.492 -0.003 0.005 0.003 -0.000
1648 4 2.219 9.957 8.654 0.006 0.003 -0.008 -0.000
1650 4 2.975 2.310 12.795 0.005 0.001 0.000 0.000
1651 4 -2.996 0.732 12.485 0.008 -0.001 -0.001 -0.000
1652 4 13.626 6.688 8.308 0.006 -0.006 0.008 -0.000
1654 4 10.980 -2.082 12.158 -0.003 -0.010 0.006 0.000
1655 4 12.545 2.732 11.049 0.012 -0.004 0.005 0.000
1656 4 2.078 0.726 10.660 0.014 0.003 -0.002 -0.000
1657 4 10.678 -2.874 9.600 -0.009 -0.007 0.009 -0.000
1683 4 -4.114 6.632 16.677 0.005 -0.006 -0.006 0.000
1685 4 -0.723 -2.467 12.033 -0.005 0.009 0.005 0.000
1686 4 -3.397 5.783 11.119 -0.002 0.002 0.002 -0.000
1689 4 2.160 5.208 6.885 0.012 0.012 -0.013 0.000
1690 4 4.650 11.512 11.076 0.006 -0.001 -0.002 -0.000
1691 4 0.609 1.406 14.850 -0.017 -0.000 0.003 0.000
1692 4 -0.059 7.306 7.315 0.001 0.002 0.002 0.000
1693 4 -1.633 11.604 9.372 -0.003 0.015 -0.004 0.000
1694 4 12.649 1.742 13.584 0.001 0.003 0.009 -0.000
1699 4 9.735 6.451 5.632 -0.000 -0.007 0.006 -0.000
1728 4 2.235 10.029 11.234 0.001 -0.008 -0.003 -0.000
1729 4 -3.095 7.991 13.321 0.007 0.000 -0.003 0.000
1730 4 6.367 7.266 7.998 0.001 -0.001 -0.018 -0.000
1731 4 6.109 12.561 9.034 0.006 -0.003 0.004 0.000
1734 4 1.280 11.932 9.753 0.009 0.002 0.009 0.000
1735 4 8.188 5.921 12.207 0.006 -0.008 -0.006 -0.000
1736 4 4.231 7.726 5.001 0.001 0.008 -0.003 0.000
1739 4 8.797 8.789 8.600 0.015 0.008 -0.005 -0.000
1763 4 -1.093 7.585 10.551 -0.006 0.008 -0.018 0.000
1766 4 -3.981 8.677 18.100 0.013 -0.001 -0.008 -0.000
1767 4 -0.533 9.073 12.315 -0.002 0.018 -0.004 0.000
1771 4 -0.765 12.844 17.662 -0.001 -0.004 -0.010 -0.000
1773 4 8.909 9.794 3.615 -0.002 -0.005 0.002 0.000
1774 4 9.651 7.945 11.449 0.006 0.002 0.003 0.000
1775 4 12.612 11.586 8.787 0.013 -0.010 -0.004 0.000
1776 4 6.613 8.333 3.918 -0.000 0.006 -0.005 -0.000
1777 4 10.780 5.744 11.943 0.010 -0.003 -0.002 0.000
1778 4 8.416 14.067 7.968 -0.002 -0.001 -0.006 -0.000
2010 4 8.697 4.976 10.250 -0.001 -0.002 -0.007 -0.000
2012 4 -0.023 -0.032 12.964 -0.003 -0.007 -0.000 0.000
2016 4 14.943 -3.393 15.350 0.001 0.009 -0.000 0.000
2018 4 10.674 0.201 16.373 0.008 0.000 0.012 -0.000
2045 4 1.606 8.186 12.903 -0.007 0.000 -0.001 0.000
2046 4 0.982 0.002 19.172 0.001 0.001 -0.002 -0.000
2048 4 -2.704 4.031 19.313 0.008 0.004 0.010 0.000
2049 4 -3.844 1.740 15.049 -0.001 0.007 -0.004 -0.000
2050 4 3.697 5.374 9.173 0.011 0.004 0.001 -0.000
2051 4 1.632 4.805 17.201 0.002 -0.007 -0.000 0.000
2052 4 3.100 5.768 13.096 -0.004 -0.004 0.007 0.000
2053 4 10.498 3.295 12.412 0.001 0.008 0.009 -0.000
2054 4 10.154 3.363 19.221 -0.001 -0.001 0.011 0.000
2055 4 13.319 1.414 15.589 0.004 -0.001 0.012 0.000
2084 4 -2.312 6.551 6.624 -0.014 -0.007 -0.011 -0.000
2086 4 -0.583 6.766 13.177 -0.008 -0.006 0.004 0.000
2087 4 -1.839 4.929 12.931 -0.004 -0.004 0.003 -0.000
2088 4 4.020 10.069 6.353 -0.006 -0.010 0.008 -0.000
2089 4 1.148 6.715 15.116 0.004 0.006 0.002 0.000
2091 4 6.524 4.622 10.680 -0.011 -0.006 -0.007 0.000
2092 4 9.248 3.433 8.572 0.011 -0.004 -0.001 -0.000
2093 4 7.772 1.385 13.357 -0.002 -0.000 -0.005 -0.000
2094 4 14.672 3.921 15.934 0.011 0.002 0.006 -0.000
2095 4 11.390 7.972 18.586 0.001 0.008 0.001 -0.000
2125 4 3.692 4.291 11.423 0.008 -0.003 -0.004 -0.000
2129 4 3.158 9.743 17.972 -0.011 0.004 -0.000 0.000
2131 4 10.800 9.993 9.877 -0.006 -0.003 -0.000 0.000
2133 4 6.294 7.850 11.711 0.001 -0.007 0.003 0.000
2134 4 8.468 8.380 16.612 -0.004 -0.005 0.005 -0.000
2135 4 12.058 4.436 14.443 -0.007 0.003 -0.001 0.000
2136 4 8.891 14.305 14.297 0.002 -0.004 -0.004 0.000
2137 4 11.952 2.967 17.129 0.006 0.012 0.013 -0.000
2138 4 13.156 8.300 11.543 0.003 -0.003 0.004 -0.000
2165 4 0.838 8.391 17.697 -0.002 0.019 0.001 0.000
2170 4 8.003 11.779 14.539 -0.001 0.006 -0.004 -0.000
2173 4 7.730 6.127 15.788 -0.001 0.005 0.005 0.000
2177 4 13.109 9.193 6.503 -0.000 -0.004 -0.004 -0.000
2412 4 5.763 8.047 17.106 0.007 0.007 -0.002 0.000
2452 4 5.580 3.403 12.889 -0.008 0.003 -0.005 0.000
2453 4 12.091 -0.420 13.998 0.004 0.001 -0.008 -0.000
2485 4 -0.671 4.103 17.852 -0.008 -0.000 -0.009 -0.000
2488 4 0.863 -0.809 15.957 0.001 0.004 -0.002 -0.000
2489 4 2.994 4.152 19.219 -0.011 0.003 -0.004 -0.000
2492 4 4.976 8.472 14.729 0.005 -0.012 0.000 -0.000
2493 4 9.661 -1.004 14.136 -0.006 -0.005 -0.002 0.000
2497 4 13.007 6.012 17.059 -0.003 0.006 -0.010 0.000
2525 4 3.464 6.476 15.962 0.008 -0.002 0.005 0.000
2528 4 4.137 9.397 12.419 -0.012 0.002 0.008 0.000
2529 4 7.740 4.690 21.244 -0.005 0.006 0.009 -0.000
2532 4 6.680 3.482 16.293 -0.005 -0.002 0.009 -0.000
2533 4 12.874 5.002 11.744 -0.008 0.003 0.002 -0.000
2568 4 -2.333 5.787 17.572 -0.001 -0.002 0.001 0.000
2569 4 1.661 14.397 17.013 -0.003 -0.008 -0.009 -0.000
2572 4 9.971 10.332 15.116 -0.011 -0.001 -0.006 0.000
2573 4 11.127 9.765 12.468 -0.001 -0.005 0.011 0.000
2577 4 10.398 12.639 17.196 -0.003 -0.001 0.003 0.000
166 4 -0.224 11.577 0.014 -0.010 -0.003 -0.002 0.000
2487 4 8.192 2.753 11.166 0.002 0.005 0.019 0.000
405 4 -2.573 -1.561 1.647 0.001 -0.011 -0.008 0.000
481 4 0.430 3.781 5.306 -0.004 0.004 0.010 -0.000
1204 4 -1.729 0.565 4.027 0.000 -0.005 0.008 -0.000
2418 4 8.084 0.467 10.464 0.004 0.004 0.006 0.000
811 4 -0.040 2.148 2.971 0.001 0.003 -0.013 -0.000
2414 4 8.203 1.182 15.760 0.004 -0.006 0.005 0.000
842 4 -2.142 3.896 5.658 0.003 0.003 -0.002 -0.000
1609 4 3.452 2.890 9.133 -0.014 -0.010 0.008 0.000
1013 4 4.390 14.991 5.247 -0.008 0.005 -0.000 0.000
412 4 -1.644 5.122 -3.792 -0.006 -0.004 -0.011 -0.000
2609 4 2.784 10.757 20.588 -0.001 0.005 0.002 0.000
172 4 0.679 5.854 -1.879 -0.006 -0.000 -0.006 -0.000
1817 4 9.386 6.402 7.995 -0.012 0.004 -0.002 -0.000
2022 4 10.277 1.967 14.573 -0.000 -0.007 -0.004 -0.000
2213 4 13.694 9.940 14.075 0.004 0.009 -0.001 0.000
2494 4 7.974 3.501 14.416 -0.006 -0.001 -0.001 0.000
2174 4 10.371 12.604 13.858 0.006 -0.013 -0.003 0.000
413 4 1.220 2.686 7.637 0.000 0.006 0.005 -0.000
2217 4 10.897 12.444 11.217 0.002 0.006 0.007 0.000
1322 4 0.549 12.771 7.872 0.006 -0.006 -0.003 -0.000
2406 4 -1.111 1.705 18.913 0.003 0.001 0.009 0.000
1405 4 1.476 11.891 1.629 -0.004 -0.000 0.014 -0.000
2531 4 2.744 6.817 18.458 0.004 0.001 0.003 0.000
970 4 5.364 12.972 3.450 -0.003 -0.001 -0.003 0.000
140 4 7.548 12.073 -0.519 0.003 -0.009 -0.001 -0.000
442 4 2.259 -0.812 -0.409 -0.001 0.005 -0.003 0.000
2454 4 0.408 11.771 12.258 -0.011 0.017 -0.005 -0.000
217 4 7.038 5.907 -0.712 -0.010 0.000 -0.006 0.000
403 4 -0.235 5.108 7.015 -0.004 -0.000 0.002 0.000
1262 4 11.509 7.576 2.908 0.002 0.004 0.000 -0.000
1813 4 9.055 11.895 9.331 -0.006 0.002 0.001 -0.000
613 4 2.158 6.530 2.969 0.001 -0.013 -0.010 0.000
211 4 10.088 12.941 3.057 -0.006 0.007 0.004 0.000
2004 4 5.511 -4.752 9.496 0.008 -0.004 -0.009 -0.000
2455 4 8.801 -1.039 16.879 0.001 -0.003 -0.005 -0.000
163 4 3.578 9.255 -0.286 -0.005 0.005 -0.001 0.000
2484 4 4.339 4.379 17.253 -0.008 0.005 0.002 0.000
2013 4 9.125 -3.259 13.700 0.009 0.005 0.000 -0.000
1380 4 13.789 8.086 4.414 -0.000 -0.005 0.009 0.000
215 4 14.615 11.124 -2.945 0.007 -0.003 0.006 0.000
489 4 -2.054 5.570 0.003 -0.015 0.002 0.007 0.000
1815 4 9.080 7.322 3.489 -0.002 -0.005 -0.005 0.000
2490 4 3.067 7.296 11.083 -0.012 0.021 -0.002 0.000
214 4 10.339 6.816 -2.201 0.004 0.005 -0.001 0.000
501 4 13.624 3.049 -1.345 -0.001 0.002 0.002 0.000
1809 4 6.602 10.985 12.523 -0.000 0.001 -0.002 -0.000
2535 4 14.487 6.287 10.871 -0.003 0.004 -0.008 0.000
95 4 13.337 -2.216 -0.782 -0.003 0.002 0.010 -0.000
2934 4 5.993 7.605 19.624 0.001 0.009 0.002 -0.000
1814 4 9.007 10.666 12.263 0.002 0.014 -0.003 -0.000
2044 4 0.028 9.811 10.177 0.001 0.002 0.008 0.000
2210 4 2.968 11.181 15.870 0.001 0.007 0.010 0.000
50 4 0.903 3.323 -2.183 0.007 0.005 0.001 -0.000
54 4 -1.474 -0.007 -4.353 -0.003 0.005 0.009 0.000
213 4 4.653 8.825 -2.360 -0.003 0.000 0.009 0.000
9561 4 -2.783 -2.197 6.604 -0.008 -0.003 0.007 -0.000
2023 4 8.724 0.923 18.481 0.010 0.003 0.009 0.000
2930 4 8.028 10.781 17.393 -0.002 -0.001 -0.004 0.000
1607 4 3.875 -2.345 10.290 -0.002 0.002 0.003 0.000
8370 4 1.584 -3.285 0.889 0.004 0.001 -0.017 0.000
1401 4 -3.768 13.410 5.886 -0.001 -0.006 0.002 -0.000
169 4 2.452 11.549 -0.950 -0.008 -0.002 -0.006 0.000
100 4 12.147 7.355 -0.216 0.005 0.000 -0.000 0.000
173 4 7.632 2.177 1.812 0.011 -0.000 0.006 0.000
130 4 -2.717 7.824 3.780 -0.005 -0.009 0.001 -0.000
2179 4 11.719 7.392 13.398 0.000 0.000 -0.010 0.000
611 4 10.560 12.734 -1.975 0.002 0.012 0.005 -0.000
1702 4 11.428 5.274 19.116 -0.003 -0.000 -0.012 -0.000
19 4 14.134 0.309 -1.564 -0.007 0.001 -0.002 0.000
2527 4 -2.388 6.204 15.216 -0.006 0.005 0.006 -0.000
862 4 11.518 4.851 7.572 -0.005 -0.015 0.002 -0.000
127 4 5.559 4.021 -1.990 0.002 0.009 -0.000 0.000
19779 4 10.365 10.178 -3.146 0.002 -0.004 -0.005 0.000
19809 4 3.805 10.869 -3.047 -0.014 -0.004 0.005 -0.000
2893 4 10.513 -1.101 18.908 0.005 -0.001 -0.002 0.000
2498 4 8.723 6.422 18.633 -0.007 0.009 0.008 0.000
9922 4 1.693 -2.151 4.891 0.000 -0.005 -0.007 0.000
2534 4 6.292 5.633 17.709 -0.000 0.008 -0.009 -0.000
2932 4 10.265 6.761 16.844 -0.010 -0.004 0.007 -0.000
3332 4 5.523 1.608 14.765 -0.017 -0.005 0.002 0.000
2812 4 4.838 -1.149 16.799 0.003 0.003 0.004 -0.000
1732 4 5.498 13.516 12.215 -0.009 -0.000 -0.005 0.000
1770 4 2.376 8.723 15.260 -0.003 -0.002 -0.001 0.000
48 4 3.028 -2.635 -4.841 -0.010 0.001 -0.003 -0.000
1220 4 12.807 1.100 5.887 -0.008 0.020 -0.001 -0.000
2041 4 -3.391 3.638 16.689 0.003 -0.006 0.008 -0.000
146 4 12.407 11.414 -0.661 -0.007 0.001 -0.010 0.000
2459 4 6.842 -2.935 15.780 0.006 -0.006 -0.008 0.000
2856 4 3.234 -0.573 18.322 -0.002 -0.001 0.009 0.000
11176 4 5.176 0.407 12.550 -0.010 0.000 -0.005 -0.000
964 4 -3.364 5.347 3.969 0.008 -0.005 -0.005 0.000
1055 4 4.861 10.533 4.057 0.006 -0.000 -0.003 -0.000
1421 4 12.706 12.407 5.828 0.003 -0.002 0.004 0.000
9980 4 11.957 -2.869 14.265 0.004 0.007 -0.008 -0.000
2411 4 2.335 -3.179 17.252 0.004 0.005 -0.001 0.000
1364 4 -0.651 10.868 4.972 -0.000 0.012 0.003 -0.000
1368 4 1.966 11.637 5.768 0.002 -0.001 -0.004 -0.000
52 4 4.205 -0.211 -1.844 0.004 -0.006 -0.001 0.000
19764 4 1.800 12.411 -3.535 0.004 0.002 -0.000 -0.000
802 4 -2.328 3.373 10.997 0.004 0.008 -0.007 0.000
2619 4 9.062 14.122 19.155 0.002 0.002 0.010 0.000
1601 4 -2.015 -0.393 8.396 -0.002 -0.005 -0.001 -0.000
2212 4 7.079 9.550 14.545 0.005 -0.004 -0.001 0.000
6119 4 -0.140 8.747 14.689 0.002 0.007 -0.012 -0.000
2495 4 12.605 -2.081 18.178 0.002 -0.001 -0.006 -0.000
251 4 9.675 11.037 -0.240 0.000 0.004 -0.015 0.000
176 4 6.613 7.309 -5.261 -0.002 -0.008 0.008 0.000
2929 4 -3.585 13.363 20.071 -0.011 -0.005 0.010 -0.000
9967 4 -1.082 -2.499 8.782 0.008 -0.008 -0.002 0.000
2446 4 5.158 4.906 19.729 -0.007 0.008 0.006 0.000
19730 4 -2.052 12.997 -3.115 0.004 -0.007 -0.000 0.000
901 4 9.090 2.897 3.708 -0.003 -0.001 -0.004 -0.000
3365 4 0.815 10.575 16.953 0.008 -0.002 0.002 0.000
2814 4 3.086 0.372 15.908 -0.006 -0.004 0.005 0.000
1341 4 15.143 5.785 4.748 0.009 0.012 0.012 -0.000
19415 4 8.882 8.830 -4.536 0.010 0.012 0.001 0.000
1403 4 4.725 11.794 13.867 -0.009 -0.004 -0.003 -0.000
10780 4 6.989 -3.866 20.181 -0.006 0.009 -0.002 -0.000
1611 4 2.047 -3.414 14.719 -0.003 0.012 0.011 0.000
2011 4 6.284 -1.083 10.184 0.008 -0.007 0.000 -0.000
2579 4 14.393 5.812 14.042 -0.003 0.003 -0.016 0.000
2896 4 9.437 4.363 17.352 -0.008 -0.005 0.002 -0.000
9966 4 1.081 -1.756 9.353 0.003 -0.004 0.001 -0.000
2500 4 10.675 1.095 20.124 0.004 0.008 0.001 -0.000
1684 4 -1.247 10.902 14.052 0.011 0.011 -0.007 -0.000
2973 4 9.064 7.979 14.017 0.003 0.008 -0.013 -0.000
1682 4 -3.410 -1.932 16.195 -0.003 0.013 -0.009 -0.000
2006 4 -1.360 4.276 15.403 -0.006 -0.002 0.003 0.000
56 4 6.497 -0.224 -0.700 -0.001 -0.001 0.001 -0.000
856 4 -0.188 -0.775 2.858 -0.005 -0.002 -0.000 0.000
51 4 1.924 -0.080 -3.149 0.007 0.005 -0.013 -0.000
2940 4 12.573 10.354 18.140 0.006 0.002 0.001 0.000
1698 4 13.517 0.481 9.285 -0.003 0.003 0.008 -0.000
2816 4 2.778 3.022 15.357 -0.005 0.008 0.011 -0.000
851 4 11.557 -2.197 2.374 -0.011 -0.010 0.006 -0.000
8769 4 2.208 -0.945 2.253 -0.007 -0.000 0.003 0.000
2884 4 3.909 2.237 17.640 0.005 -0.007 0.001 -0.000
1413 4 10.811 12.804 7.569 0.002 -0.001 0.002 -0.000
2483 4 -0.538 7.061 16.780 0.012 -0.002 0.005 0.000
541 4 8.295 9.828 -1.492 0.002 -0.001 -0.004 -0.000
129 4 -3.805 -0.150 -2.768 -0.002 -0.001 0.005 0.000
18 4 8.366 -0.631 -2.746 0.000 -0.013 -0.012 -0.000
812 4 10.910 -2.900 0.043 -0.005 -0.006 -0.003 -0.000
9172 4 2.067 1.579 0.605 0.006 -0.005 -0.010 0.000
2603 4 5.784 9.975 18.447 -0.006 -0.006 0.004 -0.000
2457 4 12.731 -3.677 16.479 -0.003 0.008 -0.001 -0.000
2123 4 0.720 5.756 19.416 0.005 0.002 0.009 0.000
2892 4 10.351 9.848 17.556 0.000 -0.000 0.000 0.000
19646 4 5.960 -1.243 -3.653 -0.006 0.003 -0.003 -0.000
60 4 8.727 -2.419 -1.331 0.006 0.001 0.002 -0.000
562 4 -2.634 2.654 2.965 -0.011 0.007 -0.004 -0.000
3289 4 4.258 -0.027 21.442 0.000 0.000 0.003 -0.000
1207 4 6.516 0.047 7.452 -0.009 -0.008 -0.006 0.000
2965 4 -2.751 11.943 18.572 0.003 -0.002 -0.000 -0.000
2817 4 7.211 -1.535 19.160 0.009 -0.001 0.005 0.000
59 4 9.193 6.303 -4.785 -0.003 -0.010 -0.003 -0.000
1765 4 2.007 10.742 13.692 0.010 -0.014 -0.011 0.000
19650 4 0.278 -1.846 -5.111 0.011 -0.004 -0.002 0.000
934 4 12.457 10.481 3.944 0.005 0.002 -0.005 0.000
2404 4 -0.300 -2.928 15.935 0.005 0.008 -0.000 0.000
2176 4 4.077 13.750 16.853 -0.011 -0.002 0.005 -0.000
1019 4 12.123 14.872 4.900 0.002 -0.004 0.005 -0.000
212 4 6.504 9.664 -3.643 -0.005 -0.006 0.009 0.000
2939 4 12.193 8.863 16.005 -0.011 0.012 -0.005 0.000
2450 4 -0.251 10.400 19.069 -0.010 -0.001 -0.005 -0.000
3247 4 7.746 3.708 18.892 0.008 -0.004 0.005 0.000
136 4 13.028 6.600 -2.073 0.013 -0.000 0.008 -0.000
1459 4 13.020 14.056 9.395 -0.003 0.004 -0.008 0.000
2021 4 10.210 -3.213 16.497 -0.004 0.004 0.004 0.000
809 4 10.314 0.221 1.987 0.010 0.001 -0.005 0.000
19736 4 5.593 6.563 -2.938 -0.003 -0.006 -0.005 0.000
19681 4 -2.970 -2.365 -3.735 0.008 0.001 0.008 -0.000
1243 4 -1.647 1.971 16.468 0.004 -0.007 -0.001 -0.000
3005 4 0.403 12.567 14.666 0.004 -0.003 -0.013 -0.000
973 4 10.085 11.480 5.124 -0.006 0.008 -0.005 0.000
6120 4 -0.850 4.956 21.520 0.009 -0.002 0.006 0.000
653 4 8.216 11.685 -3.518 0.004 0.004 0.003 -0.000
2083 4 -0.812 -0.958 17.770 0.005 -0.004 -0.008 0.000
2085 4 -3.991 -0.704 10.505 -0.014 0.001 -0.008 0.000
168 4 5.875 12.297 -3.371 0.005 0.001 -0.004 -0.000
2867 4 12.615 2.703 19.385 0.005 -0.005 0.000 0.000
2416 4 2.749 -0.150 13.554 0.006 -0.004 -0.002 -0.000
605 4 -3.166 10.974 -2.517 0.007 -0.009 -0.001 0.000
977 4 12.893 9.472 1.304 -0.004 -0.000 -0.006 0.000
8778 4 11.145 -1.226 -2.293 -0.006 -0.003 -0.004 0.000
10338 4 8.465 -2.324 11.311 -0.009 -0.003 -0.007 -0.000
2564 4 1.297 12.530 19.923 0.002 -0.009 -0.012 -0.000
2171 4 4.866 13.752 20.381 0.003 -0.005 0.011 -0.000
9 4 -4.068 -3.000 -1.489 0.003 0.008 -0.012 -0.000
103 4 14.503 5.883 0.637 -0.002 0.003 0.006 0.000
88 4 3.074 6.692 -3.286 0.002 0.009 0.003 -0.000
19284 4 -1.263 6.409 -5.617 0.002 0.010 -0.010 -0.000
6159 4 -1.542 8.200 18.722 0.005 -0.006 -0.012 -0.000
1012 4 4.907 12.312 0.726 0.000 -0.015 0.003 -0.000
1727 4 -2.352 8.858 16.000 0.006 -0.009 -0.006 0.000
170 4 -1.401 14.344 -0.497 0.002 0.003 -0.001 0.000
96 4 6.798 4.320 -4.725 0.009 -0.008 -0.008 0.000
499 4 12.202 -0.502 4.017 -0.008 0.009 0.013 0.000
6438 4 -2.329 0.007 20.255 -0.004 -0.005 -0.010 0.000
2969 4 9.629 10.858 19.517 0.004 -0.000 0.004 0.000
2860 4 12.672 0.538 17.843 0.005 -0.006 -0.001 -0.000
2901 4 11.929 4.779 21.583 0.001 -0.001 0.002 -0.000
493 4 5.728 1.331 -2.994 0.003 -0.000 -0.006 -0.000
224 4 14.206 9.055 -0.872 0.001 -0.002 0.001 -0.000
177 4 11.140 8.322 -4.793 0.004 0.015 -0.002 -0.000
492 4 2.491 4.704 -0.739 0.002 0.005 0.016 0.000
19682 4 -2.696 2.849 0.579 0.001 0.013 -0.005 -0.000
3257 4 6.048 1.021 17.046 0.003 -0.008 -0.002 0.000
86 4 -1.824 8.695 -3.966 -0.003 -0.009 -0.004 -0.000
2420 4 13.205 -1.326 15.689 0.004 -0.004 -0.003 0.000
19781 4 12.882 8.782 -3.167 -0.003 0.011 0.008 0.000
2481 4 -3.462 4.433 14.336 0.006 0.013 0.004 0.000
8384 4 14.263 -2.281 -3.381 0.008 -0.003 0.002 0.000
10774 4 6.730 -2.815 13.255 0.003 0.001 0.005 -0.000
2415 4 4.731 -1.056 14.419 0.003 0.018 -0.005 0.000
2499 4 14.358 5.988 19.153 0.007 0.006 -0.002 -0.000
482 4 -3.600 4.602 -1.723 0.007 -0.004 -0.007 -0.000
3017 4 3.413 11.935 18.662 0.001 0.008 -0.001 0.000
2417 4 4.636 -3.934 14.810 -0.001 0.006 -0.010 -0.000
2616 4 5.361 11.474 16.546 -0.001 -0.002 0.001 0.000
841 4 -2.218 1.277 -1.064 -0.004 -0.000 0.000 0.000
568 4 2.486 8.996 3.762 0.009 -0.000 -0.000 -0.000
2974 4 3.976 8.826 20.831 -0.005 -0.005 -0.002 -0.000
451 4 3.917 -2.448 0.854 0.005 0.001 -0.004 -0.000
1409 4 2.762 13.055 12.671 0.006 -0.004 -0.012 0.000
10775 4 7.179 -0.828 14.778 0.007 0.001 0.009 -0.000
1004 4 -3.672 12.492 -0.433 0.011 -0.009 0.005 0.000
207 4 0.250 14.625 -2.819 -0.006 0.007 -0.003 -0.000
47 4 3.763 -2.508 -1.757 0.010 0.009 0.004 -0.000
23678 4 -3.926 6.241 -4.147 0.004 -0.010 -0.005 -0.000
9525 4 -1.262 -2.469 4.636 0.006 0.000 -0.004 -0.000
1780 4 12.924 9.006 9.003 0.005 0.001 -0.007 0.000
2167 4 1.958 8.760 20.043 0.002 0.006 -0.015 0.000
1617 4 10.963 -0.463 8.566 -0.004 0.001 -0.006 0.000
448 4 -2.844 2.591 -3.591 -0.007 0.003 0.005 0.000
3212 4 5.650 -3.087 18.045 0.002 0.023 -0.019 0.000
866 4 12.334 0.114 11.295 0.003 0.010 0.009 0.000
979 4 12.437 13.307 1.940 0.010 -0.002 -0.009 0.000
9182 4 12.407 -3.627 7.769 0.004 0.000 0.003 0.000
259 4 11.681 14.737 -2.905 -0.000 -0.003 -0.004 -0.000
19773 4 4.367 8.224 -4.743 -0.002 -0.003 -0.002 0.000
11184 4 9.669 -2.814 19.769 -0.005 -0.010 0.000 -0.000
19814 4 3.847 13.227 -2.713 0.001 -0.002 -0.012 0.000
9968 4 1.666 -0.277 7.046 -0.006 -0.001 -0.007 0.000
2846 4 2.448 1.698 20.422 -0.011 0.001 0.007 0.000
3021 4 13.625 8.285 18.136 -0.008 0.001 -0.002 0.000
2122 4 -4.499 10.591 20.005 -0.014 0.006 -0.006 -0.000
10738 4 7.995 -3.642 17.712 0.004 -0.002 -0.013 -0.000
19763 4 -0.800 9.861 -1.757 -0.013 0.004 0.009 0.000
175 4 7.836 7.617 -2.939 -0.004 -0.001 0.003 -0.000
2630 4 12.835 11.603 15.748 0.000 -0.005 -0.009 0.000
444 4 -3.077 7.143 -1.851 -0.005 0.003 -0.011 -0.000
1008 4 0.877 14.047 0.188 0.013 -0.004 0.002 -0.000
2413 4 1.564 -1.663 11.690 0.001 -0.012 0.004 0.000
849 4 -2.598 -4.206 1.997 -0.009 -0.003 -0.001 -0.000
2456 4 14.972 1.636 17.512 0.009 0.002 0.003 0.000
496 4 8.017 -1.501 -5.550 0.009 0.009 -0.005 -0.000
864 4 13.963 -1.693 12.522 -0.002 -0.006 -0.005 -0.000
2082 4 -3.778 1.735 19.359 0.005 0.001 0.008 0.000
3372 4 5.502 11.032 20.832 0.003 -0.007 0.014 0.000
456 4 5.932 -3.888 -1.181 -0.011 0.006 0.002 -0.000
9972 4 5.458 -3.646 4.115 -0.001 0.001 0.012 -0.000
2407 4 -3.117 -4.403 21.278 0.005 -0.005 -0.000 -0.000
1725 4 -4.171 10.989 13.192 -0.005 0.002 0.004 0.000
823 4 13.893 -0.959 7.037 0.004 -0.006 -0.016 0.000
1247 4 0.217 -3.268 2.962 0.001 0.001 0.006 0.000
2972 4 6.373 12.233 18.766 -0.001 0.013 0.010 0.000
19761 4 -4.670 13.285 -2.236 0.003 0.004 0.009 0.000
19683 4 2.318 1.901 -4.671 0.017 0.001 0.010 -0.000
3013 4 11.846 13.616 19.014 0.001 -0.000 0.001 0.000
19775 4 12.109 12.043 -3.540 0.001 0.002 0.002 0.000
3 4 -3.851 -2.027 3.727 0.003 0.003 -0.004 -0.000
2140 4 13.229 10.481 11.105 0.004 -0.006 -0.016 0.000
1376 4 8.550 12.786 11.981 0.000 -0.006 0.001 -0.000
1723 4 -2.559 8.888 8.510 0.009 0.006 0.000 0.000
968 4 3.201 13.601 1.867 0.007 -0.000 0.006 -0.000
19363 4 -2.080 11.520 -5.684 -0.013 0.005 -0.005 -0.000
9962 4 -4.443 -2.516 8.561 0.005 0.009 -0.002 -0.000
2020 4 13.480 -2.689 10.344 0.008 0.001 -0.011 0.000
49 4 7.118 -0.074 2.203 0.004 0.007 -0.003 -0.000
2007 4 0.480 -3.357 6.973 0.003 -0.001 -0.011 0.000
19768 4 -0.081 13.014 -5.223 -0.002 -0.010 -0.001 0.000
1649 4 3.363 -2.660 7.299 -0.002 0.000 -0.001 0.000
11574 4 3.988 -2.495 19.613 0.005 0.010 -0.002 -0.000
2566 4 0.638 14.836 20.961 -0.003 -0.002 0.014 -0.000
1294 4 -2.531 10.376 11.876 -0.001 -0.001 -0.013 -0.000
2218 4 7.775 14.144 17.291 -0.001 -0.002 0.012 0.000
2978 4 9.150 8.449 19.483 0.000 -0.005 -0.004 -0.000
19688 4 0.719 8.220 -4.952 0.003 0.002 0.011 -0.000
1384 4 14.939 14.373 2.769 -0.003 0.009 -0.009 0.000
2964 4 -2.894 8.661 21.094 0.001 0.001 0.009 -0.000
2859 4 8.802 2.269 20.971 0.001 -0.003 -0.001 0.000
3405 4 -0.042 8.044 21.150 -0.003 0.002 0.002 -0.000
2862 4 14.275 0.694 20.086 -0.005 -0.003 -0.001 -0.000
1211 4 3.669 -1.936 12.738 0.001 -0.008 -0.012 -0.000
491 4 12.105 -3.329 -3.145 0.007 0.000 0.001 -0.000
9563 4 -3.680 -1.310 12.834 -0.009 0.006 -0.000 0.000
2105 4 14.837 -1.029 18.360 -0.001 -0.005 0.002 0.000
1209 4 -1.683 -4.635 6.937 0.009 -0.000 0.005 -0.000
6 4 1.283 -3.410 -2.330 0.004 -0.003 -0.016 -0.000
2825 4 14.499 -2.971 20.099 -0.008 0.001 0.006 0.000
523 4 -4.964 8.586 -1.060 -0.001 -0.018 0.011 0.000
1422 4 14.932 13.142 7.633 -0.005 0.002 -0.000 0.000
937 4 11.697 2.117 3.198 -0.001 0.010 0.009 -0.000
2410 4 5.389 2.403 19.508 0.017 0.002 0.006 -0.000
2623 4 10.025 14.811 16.427 -0.017 0.003 -0.006 -0.000
1412 4 10.516 14.457 9.938 0.006 -0.008 0.011 -0.000
4520 4 -4.183 -0.715 -0.235 0.001 -0.000 0.009 -0.000
1807 4 -2.273 14.756 18.133 0.005 0.009 0.015 0.000
2853 4 6.928 0.669 20.757 -0.002 -0.006 -0.002 0.000
617 4 14.061 13.519 -4.011 0.000 -0.002 -0.002 0.000
1615 4 10.241 -4.465 12.099 0.008 -0.001 0.008 0.000
1260 4 9.025 -1.444 3.793 0.002 -0.015 0.007 0.000
1606 4 -5.118 -2.878 0.767 -0.011 -0.002 0.001 -0.000
610 4 -0.893 13.675 1.903 0.003 0.007 0.000 -0.000
813 4 9.266 -1.665 1.135 -0.006 -0.000 0.007 -0.000
1392 4 14.290 13.361 17.839 0.003 -0.006 -0.001 -0.000
1762 4 -4.399 8.449 10.204 -0.005 -0.012 0.007 0.000
2652 4 6.156 13.809 14.866 -0.004 0.003 0.007 -0.000
3307 4 12.654 -0.734 20.549 0.009 0.008 0.002 0.000
8765 4 -1.786 -2.643 -0.345 -0.002 0.001 0.005 -0.000
1624 4 14.443 -4.267 18.089 -0.005 -0.006 -0.009 0.000
19455 4 9.730 13.455 -4.199 -0.005 0.000 0.000 -0.000
1455 4 12.680 13.434 13.313 0.004 -0.007 -0.000 0.000
2130 4 2.693 13.902 15.185 -0.001 -0.002 0.003 0.000
19816 4 6.915 15.063 -3.665 -0.003 0.006 0.006 -0.000
9566 4 -2.842 -2.922 11.232 0.003 -0.003 0.002 -0.000
5799 4 -2.150 15.095 13.327 0.005 0.007 -0.001 -0.000
966 4 1.475 14.478 5.468 0.006 -0.009 -0.003 0.000
2447 4 2.015 -1.412 20.898 -0.006 0.002 0.005 0.000
1053 4 6.638 13.698 1.132 -0.003 -0.010 0.005 -0.000
2565 4 -1.047 12.915 20.027 0.005 -0.000 -0.002 -0.000
63 4 14.573 3.279 1.916 -0.013 -0.002 -0.008 0.000
3285 4 6.631 -1.792 21.464 -0.001 0.005 -0.003 -0.000