ITEM: TIMESTEP
17000
ITEM: NUMBER OF ATOMS
32000
ITEM: BOX BOUNDS pp pp pp
-5.517306 75.997306
-5.140070 75.620070
-4.810180 75.290180
ITEM: ATOMS id type x y z vx vy vz q
174 4 7.085 7.803 8.533 0.007 0.005 -0.000 -0.000
406 4 11.249 4.619 -1.249 -0.001 0.007 0.002 0.000
454 4 0.122 0.261 -2.117 0.002 -0.001 -0.007 -0.000
488 4 8.305 9.841 8.416 0.011 -0.008 0.004 0.000
494 4 2.978 0.725 7.398 0.009 0.008 -0.005 -0.000
529 4 -0.570 7.624 5.632 0.006 -0.010 -0.014 -0.000
531 4 -0.633 4.964 7.963 0.010 0.008 0.006 0.000
539 4 5.909 5.599 14.248 0.000 0.000 -0.001 0.000
571 4 7.395 -3.852 0.035 0.005 -0.001 -0.001 -0.000
810 4 0.453 -1.691 14.471 -0.003 0.001 0.003 -0.000
847 4 8.409 1.102 -0.126 0.005 -0.008 0.006 -0.000
889 4 7.619 12.715 4.297 -0.004 0.005 0.002 0.000
890 4 9.322 2.705 9.984 -0.006 0.005 -0.007 0.000
891 4 6.066 5.509 9.026 0.001 0.005 0.005 0.000
892 4 7.082 -2.477 14.470 0.002 0.001 -0.010 0.000
893 4 8.571 -1.467 1.445 0.008 0.001 0.003 -0.000
895 4 13.174 5.620 6.029 0.009 0.004 -0.001 -0.000
896 4 8.540 2.106 14.054 -0.001 -0.002 -0.010 0.000
927 4 -1.238 10.855 -2.212 -0.006 -0.000 -0.004 0.000
971 4 7.524 9.903 12.538 0.004 0.008 0.009 0.000
972 4 0.614 12.037 -3.576 -0.003 -0.004 -0.005 0.000
1206 4 1.803 1.769 -1.238 0.013 -0.007 -0.010 0.000
1208 4 9.295 -1.376 3.525 0.004 -0.002 -0.004 -0.000
1216 4 7.368 -2.501 7.688 0.014 0.007 -0.004 -0.000
1218 4 6.420 3.091 7.414 0.009 0.001 -0.009 -0.000
1244 4 4.363 -1.799 13.552 0.006 -0.001 0.004 0.000
1245 4 4.098 4.345 18.352 0.009 -0.008 -0.001 -0.000
1248 4 3.849 -0.455 11.819 -0.007 0.004 -0.007 -0.000
1249 4 9.546 6.752 12.303 0.005 -0.003 -0.003 -0.000
1250 4 10.812 4.435 8.875 0.001 0.007 0.001 0.000
1285 4 0.623 -0.823 4.236 -0.001 -0.013 0.002 -0.000
1286 4 11.089 1.367 4.379 -0.004 -0.000 -0.005 0.000
1287 4 5.831 14.819 11.485 -0.012 0.005 -0.005 -0.000
1289 4 12.266 3.337 13.441 -0.003 -0.005 0.001 -0.000
1292 4 1.253 1.902 11.339 0.002 0.001 0.009 -0.000
1293 4 1.519 1.313 20.665 -0.004 0.006 -0.001 -0.000
1295 4 10.028 0.438 -2.007 -0.001 -0.005 -0.006 0.000
1300 4 8.075 12.229 14.288 -0.003 -0.006 -0.005 -0.000
1329 4 9.107 10.445 10.809 -0.007 -0.009 -0.004 -0.000
1330 4 8.083 8.001 5.939 0.005 0.001 0.002 0.000
1331 4 8.451 5.166 9.751 -0.003 0.012 0.003 0.000
1335 4 1.449 2.308 6.145 0.012 -0.001 -0.001 0.000
1338 4 1.117 9.350 9.427 0.005 0.008 0.002 0.000
1373 4 12.577 2.826 3.200 0.004 0.002 0.009 -0.000
1375 4 4.207 5.768 10.601 -0.005 0.010 0.003 -0.000
1610 4 0.126 3.169 3.018 0.000 -0.007 0.007 -0.000
1644 4 3.976 1.675 10.827 -0.012 -0.003 -0.005 -0.000
1646 4 6.070 1.238 9.068 0.001 -0.009 -0.005 -0.000
1650 4 3.582 -1.823 7.590 0.001 0.005 0.001 0.000
1651 4 3.911 4.615 7.376 -0.009 0.002 0.005 0.000
1655 4 7.891 -0.497 9.616 0.001 0.007 0.001 -0.000
1689 4 -0.140 4.738 5.464 0.005 -0.001 -0.001 0.000
1690 4 4.134 7.459 3.045 0.003 0.005 0.006 0.000
1728 4 0.099 9.177 2.943 0.010 -0.001 -0.009 -0.000
1735 4 12.016 3.299 10.592 0.001 0.005 0.006 0.000
1767 4 1.904 5.437 9.035 -0.002 0.004 -0.005 0.000
2012 4 4.983 -0.171 21.509 0.005 -0.003 0.003 0.000
2045 4 5.156 12.472 10.112 0.008 -0.004 -0.004 0.000
2051 4 12.584 9.520 14.160 0.001 -0.004 0.001 0.000
2086 4 4.760 10.235 5.310 -0.009 0.002 -0.007 0.000
2087 4 6.220 2.719 13.412 -0.004 0.001 -0.003 -0.000
2088 4 8.851 5.493 6.932 0.002 0.019 0.012 0.000
2089 4 4.886 11.450 17.528 -0.002 -0.004 0.001 -0.000
2092 4 11.323 11.504 8.413 0.009 0.008 0.006 -0.000
2125 4 1.213 12.632 12.967 -0.008 -0.006 -0.009 0.000
2129 4 1.902 4.722 16.531 0.001 0.002 0.001 0.000
2134 4 9.236 -0.558 18.288 -0.002 0.000 0.011 -0.000
2135 4 7.917 7.750 10.607 -0.001 0.000 -0.003 0.000
2165 4 10.040 13.026 15.688 0.000 -0.001 0.003 -0.000
2170 4 11.372 9.085 16.602 0.004 -0.001 0.005 -0.000
2173 4 9.561 14.645 11.239 0.004 0.007 0.004 -0.000
2412 4 -0.042 5.804 18.820 -0.000 -0.001 0.000 -0.000
2452 4 8.707 4.675 13.555 0.006 0.011 -0.005 -0.000
2453 4 11.235 -2.320 18.267 0.006 -0.000 -0.010 -0.000
2493 4 9.133 8.420 17.110 0.008 0.012 0.004 0.000
2525 4 0.480 11.194 15.258 -0.004 0.003 0.001 0.000
2528 4 2.560 1.991 16.460 0.007 -0.001 0.008 -0.000
2529 4 11.361 0.111 18.017 -0.002 0.003 0.014 0.000
2532 4 9.373 7.544 8.144 -0.001 -0.005 -0.002 0.000
2573 4 12.585 7.678 12.350 -0.009 -0.019 0.011 -0.000
481 4 4.829 1.714 2.697 0.013 0.003 0.002 -0.000
1609 4 10.595 1.590 6.992 0.004 -0.005 -0.005 -0.000
2022 4 10.698 7.534 13.866 -0.004 0.008 0.004 -0.000
2454 4 0.010 5.178 12.394 0.004 0.001 -0.000 -0.000
403 4 8.056 2.528 1.623 -0.001 -0.011 0.008 -0.000
2455 4 5.665 1.401 16.037 0.002 -0.006 -0.004 0.000
163 4 9.820 3.759 3.959 0.008 -0.004 0.003 -0.000
1815 4 11.020 9.380 3.429 0.009 -0.001 0.002 -0.000
2490 4 7.979 9.077 15.029 0.002 0.000 0.012 -0.000
2044 4 7.127 12.603 8.551 0.000 -0.006 -0.016 0.000
2930 4 -1.040 10.406 17.801 -0.001 0.007 -0.000 0.000
8370 4 2.818 0.856 4.536 0.001 -0.001 -0.001 -0.000
2179 4 13.172 2.671 8.074 0.003 -0.005 -0.013 0.000
19 4 6.013 1.389 0.471 -0.014 -0.006 0.006 0.000
127 4 8.216 8.260 3.473 0.013 0.005 0.002 0.000
19809 4 11.887 7.422 7.979 0.003 -0.015 -0.007 -0.000
2534 4 12.656 4.794 16.361 -0.012 -0.005 -0.001 -0.000
3332 4 7.264 0.282 2.192 0.007 0.004 0.013 -0.000
1732 4 5.294 7.794 14.514 0.004 -0.009 0.007 -0.000
1220 4 14.076 11.632 9.931 -0.000 -0.003 -0.003 0.000
964 4 2.756 2.878 3.256 0.006 0.005 0.001 -0.000
1055 4 8.957 12.932 7.185 0.004 -0.002 0.003 0.000
1368 4 -1.615 8.075 -3.290 -0.006 0.003 0.014 -0.000
19764 4 -0.034 10.482 5.178 0.002 0.006 -0.002 0.000
901 4 9.964 7.823 1.506 0.014 0.002 -0.008 -0.000
1403 4 3.890 14.547 13.797 -0.006 0.009 0.001 -0.000
2896 4 3.047 14.090 11.343 -0.002 -0.001 0.006 0.000
1684 4 -0.193 6.214 14.407 0.004 0.006 -0.008 0.000
2816 4 2.882 -2.193 16.995 -0.003 -0.001 -0.004 0.000
851 4 8.910 -2.320 16.585 0.004 0.005 -0.004 -0.000
8769 4 -1.866 6.111 10.334 -0.002 0.003 -0.009 -0.000
2483 4 5.544 8.572 16.861 -0.000 -0.003 -0.007 -0.000
2603 4 9.237 4.204 16.881 0.000 -0.002 0.000 -0.000
2965 4 6.617 1.178 18.635 0.001 -0.009 0.015 -0.000
1765 4 3.981 -0.342 15.173 0.003 0.003 -0.006 -0.000
3247 4 6.140 0.752 11.619 0.009 -0.012 0.003 0.000
809 4 11.159 -0.993 5.869 0.005 0.004 -0.013 0.000
88 4 -3.918 0.595 2.678 0.011 -0.000 0.003 0.000
1727 4 -2.553 13.370 12.683 -0.002 -0.016 0.000 -0.000
492 4 5.152 6.834 6.899 -0.006 0.020 -0.005 -0.000
2420 4 10.351 2.076 12.598 0.002 0.003 0.006 0.000
10774 4 11.788 5.353 12.938 -0.003 -0.000 -0.000 -0.000
2417 4 -0.717 -0.313 16.332 -0.007 0.010 -0.000 -0.000
841 4 3.427 -0.529 0.215 -0.005 -0.010 -0.001 -0.000
568 4 6.197 8.542 4.986 -0.004 0.002 -0.008 -0.000
979 4 10.612 9.264 6.990 -0.006 0.007 0.005 -0.000
9968 4 2.663 4.825 4.930 -0.005 0.006 -0.007 0.000
444 4 1.802 4.203 7.177 -0.002 -0.003 -0.000 -0.000
1376 4 10.568 11.707 4.793 -0.001 -0.002 -0.005 0.000
1649 4 7.692 3.461 11.866 -0.002 0.002 -0.002 0.000
1211 4 2.864 -2.702 -2.477 -0.001 0.004 -0.009 0.000
9563 4 -0.785 -3.056 16.606 -0.002 -0.001 -0.002 0.000
610 4 -0.197 3.721 9.992 -0.011 0.003 -0.002 -0.000
19455 4 7.888 11.535 -0.831 0.004 0.002 -0.006 -0.000
27937 4 -2.184 0.852 -1.280 0.002 0.016 0.005 0.000
453 4 10.105 -0.561 8.450 0.011 0.007 0.007 -0.000
852 4 -1.488 5.346 -0.687 0.008 -0.003 0.012 -0.000
572 4 10.270 7.353 5.517 -0.003 -0.002 0.003 -0.000
19413 4 -0.566 -1.959 6.423 0.003 -0.006 -0.006 0.000
1365 4 0.147 6.910 -0.823 0.002 -0.008 -0.003 -0.000
525 4 2.397 13.639 6.056 -0.008 -0.003 -0.003 -0.000
6117 4 9.774 -1.916 10.479 -0.006 0.001 0.016 -0.000
1696 4 6.752 6.291 16.541 -0.005 0.007 0.003 -0.000
1217 4 -2.621 2.436 1.006 -0.000 -0.003 0.014 0.000
607 4 7.200 5.564 2.478 0.002 0.007 -0.009 -0.000
523 4 3.553 7.336 5.159 -0.004 -0.010 0.004 0.000
536 4 9.224 -2.897 5.919 -0.005 0.001 0.008 0.000
1725 4 10.670 9.460 12.293 0.004 0.006 -0.007 -0.000
2130 4 6.316 10.343 10.059 0.009 0.003 0.002 -0.000
566 4 1.254 6.461 6.879 -0.003 0.005 0.000 0.000
1283 4 -4.158 1.832 12.199 -0.004 0.006 0.007 -0.000
132 4 -0.304 -2.467 -2.305 -0.009 0.002 -0.005 -0.000
1686 4 2.025 11.362 16.949 0.004 0.006 -0.012 -0.000
9930 4 -3.576 7.717 8.446 -0.001 0.007 -0.000 0.000
4479 4 0.231 2.024 16.602 0.009 -0.003 0.009 0.000
19325 4 7.394 -1.097 -0.969 -0.003 0.005 0.008 -0.000
208 4 0.636 11.595 -1.053 -0.014 -0.005 0.006 -0.000
2106 4 2.250 9.233 12.289 0.001 -0.002 0.008 0.000
9974 4 11.766 3.473 5.897 -0.003 0.003 -0.001 0.000
2042 4 4.121 -2.498 3.725 -0.007 -0.002 -0.006 0.000
1702 4 12.798 11.320 16.109 -0.003 0.010 0.001 0.000
9565 4 6.721 3.802 15.697 0.012 0.005 -0.009 -0.000
3062 4 12.690 7.602 18.557 0.002 -0.002 -0.001 -0.000
95 4 8.757 0.992 4.892 -0.006 0.002 0.003 -0.000
528 4 0.106 -2.437 2.042 -0.001 -0.003 -0.007 -0.000
5758 4 4.197 2.699 5.878 -0.012 0.002 0.007 -0.000
19736 4 8.359 5.587 4.297 -0.004 -0.009 0.002 0.000
2204 4 5.081 7.911 9.879 0.003 0.002 0.001 -0.000
1012 4 14.823 8.034 13.109 0.001 0.009 0.008 0.000
2460 4 7.039 -1.709 11.606 0.006 -0.010 -0.012 0.000
569 4 1.229 6.595 4.035 0.001 0.008 0.003 0.000
1723 4 2.778 6.400 18.857 -0.000 0.014 0.006 -0.000
19363 4 11.551 2.263 -2.577 -0.002 -0.003 -0.001 0.000
19682 4 2.786 -2.175 9.986 0.009 -0.004 -0.001 0.000
858 4 9.104 -0.943 14.716 0.007 -0.004 0.007 0.000
1251 4 11.098 -0.530 12.898 0.013 0.008 -0.002 -0.000
7233 4 7.157 -2.027 18.331 -0.005 -0.003 0.017 0.000
19810 4 5.715 9.779 2.895 -0.001 0.002 -0.003 0.000
19771 4 -1.604 -0.035 2.798 -0.008 0.004 0.001 -0.000
55 4 -0.297 -2.958 11.833 0.001 -0.004 0.007 -0.000
533 4 5.917 5.727 5.219 0.002 -0.004 0.017 0.000
91 4 10.011 11.490 0.749 0.001 -0.007 0.002 -0.000
2934 4 12.850 9.826 18.255 0.001 0.006 -0.009 0.000
2643 4 3.266 7.225 13.016 0.004 0.004 0.010 0.000
6480 4 3.835 1.734 13.778 -0.009 -0.004 -0.003 0.000
1761 4 2.749 5.491 14.319 -0.000 0.006 0.002 -0.000
2163 4 3.662 6.376 16.235 0.003 0.002 0.001 -0.000
456 4 8.464 4.198 -0.331 -0.010 0.000 0.015 0.000
654 4 3.227 9.715 2.859 -0.004 -0.004 -0.002 0.000
1281 4 5.305 -0.473 4.770 0.003 -0.000 0.002 0.000
1653 4 8.114 1.343 7.775 -0.008 0.013 -0.008 -0.000
1135 4 9.469 5.455 1.583 -0.003 0.014 -0.002 -0.000
1282 4 4.522 4.156 12.602 0.004 0.003 -0.000 0.000
19776 4 6.476 1.624 4.695 0.004 0.002 -0.005 0.000
170 4 -2.539 8.230 3.050 0.002 -0.011 0.007 0.000
1336 4 12.115 -0.774 3.555 -0.000 0.003 -0.004 0.000
5036 4 2.970 5.390 -0.618 0.006 0.007 0.009 -0.000
2124 4 2.500 8.750 17.805 -0.005 0.009 -0.011 0.000
19408 4 4.947 6.445 0.287 0.001 0.006 0.007 -0.000
2886 4 12.963 12.044 18.912 -0.000 0.005 -0.008 0.000
140 4 3.364 11.768 0.862 -0.002 -0.004 -0.006 0.000
1303 4 6.819 -4.454 19.724 0.001 -0.003 -0.002 -0.000
3007 4 8.048 14.207 16.775 -0.003 0.004 -0.000 -0.000
2084 4 5.555 -0.955 2.252 0.005 -0.001 -0.005 0.000
11180 4 12.696 1.393 19.478 0.007 0.004 0.007 0.000
19284 4 1.010 -0.555 7.655 -0.004 0.008 0.013 -0.000
565 4 3.174 12.659 3.054 0.002 0.009 -0.000 0.000
90 4 2.777 -1.315 5.535 -0.006 -0.012 -0.003 0.000
16218 4 3.229 10.889 19.583 0.002 -0.006 -0.002 -0.000
1601 4 2.918 -3.851 6.063 0.009 -0.003 0.008 0.000
3264 4 10.768 5.936 17.743 -0.005 0.006 -0.005 0.000
1210 4 5.776 -0.435 7.244 -0.001 -0.011 -0.005 0.000
2848 4 7.453 0.338 21.009 0.005 -0.006 0.017 -0.000
19721 4 -3.085 10.788 -1.071 -0.007 -0.004 0.002 -0.000
171 4 -0.510 6.972 1.417 0.002 0.000 0.005 -0.000
9931 4 10.234 1.458 15.193 0.011 0.007 0.018 -0.000
3668 4 5.108 -2.791 18.061 -0.001 -0.009 -0.002 -0.000
2521 4 1.180 3.274 14.158 0.004 -0.000 0.003 0.000
4598 4 4.235 3.864 15.422 -0.001 0.000 0.001 -0.000
2121 4 5.271 -3.677 1.681 0.000 0.003 0.002 0.000
3700 4 13.187 7.031 14.986 0.001 0.002 -0.012 -0.000
485 4 1.867 6.845 11.073 0.010 0.009 0.004 0.000
9165 4 -0.310 7.438 9.235 0.001 0.004 0.002 -0.000
1322 4 4.100 11.747 12.559 0.008 0.000 -0.001 0.000
1688 4 0.425 8.687 7.326 -0.004 -0.001 0.003 0.000
3287 4 11.415 -4.584 18.519 0.003 -0.003 -0.001 0.000
9132 4 8.289 -0.577 6.412 -0.001 0.008 -0.008 -0.000
2018 4 11.269 -0.821 15.865 -0.011 0.002 0.002 -0.000
2166 4 5.871 10.793 14.483 0.001 -0.005 -0.002 0.000
9895 4 10.697 3.969 15.016 0.012 -0.003 -0.005 0.000
887 4 -1.364 6.217 3.712 -0.003 0.001 0.009 0.000
8365 4 1.648 4.218 -2.488 -0.004 -0.003 -0.004 0.000
19625 4 10.562 2.595 0.054 -0.001 0.001 -0.015 0.000
1642 4 -1.715 -1.701 18.475 0.005 0.008 -0.010 -0.000
1813 4 10.104 12.386 12.738 0.007 0.003 -0.004 0.000
6516 4 7.822 7.471 13.479 0.006 0.000 0.001 -0.000
2209 4 5.280 8.538 12.295 -0.000 -0.003 0.010 -0.000
3008 4 3.972 13.440 18.730 -0.013 -0.005 -0.005 -0.000
19298 4 4.823 4.100 3.458 -0.004 -0.004 -0.006 -0.000
846 4 5.428 -2.343 -0.276 0.004 -0.011 0.008 -0.000
10328 4 6.974 -3.949 16.955 -0.002 0.007 -0.002 0.000
203 4 2.154 9.478 5.781 -0.008 -0.004 0.018 -0.000
605 4 1.041 9.622 -2.708 -0.005 -0.000 0.004 -0.000
177 4 7.672 7.097 0.341 0.003 0.001 -0.000 -0.000
86 4 -2.003 11.858 8.688 0.003 -0.002 0.001 -0.000
19654 4 8.609 10.435 5.551 -0.001 0.001 -0.008 0.000
6111 4 1.444 3.077 18.371 -0.004 0.003 0.004 -0.000
1042 4 5.044 13.919 1.842 0.000 0.006 0.004 -0.000
19335 4 8.589 10.765 3.024 0.007 -0.001 0.010 0.000
2094 4 6.057 -0.179 13.578 -0.002 -0.010 0.014 -0.000
1406 4 6.503 9.691 18.356 0.001 -0.004 0.004 -0.000
19763 4 -2.367 5.106 1.275 -0.006 0.004 0.010 0.000
863 4 7.569 -0.297 16.392 0.010 -0.013 -0.010 -0.000
16178 4 4.876 -0.488 17.311 -0.008 -0.011 0.001 0.000
5399 4 2.144 12.213 9.819 0.004 0.011 0.011 -0.000
6951 4 -2.843 11.625 11.249 0.001 -0.003 -0.005 -0.000
2531 4 1.214 -0.155 17.756 -0.001 0.002 -0.004 0.000
10780 4 8.420 5.547 19.438 -0.002 -0.002 -0.003 0.000
192 4 -1.659 8.713 -0.470 -0.005 0.003 0.002 -0.000
614 4 7.491 13.239 1.695 0.003 0.004 -0.010 -0.000
8763 4 -1.987 -0.715 7.813 0.003 0.001 0.005 -0.000
2908 4 12.534 0.702 14.691 0.014 -0.005 0.006 0.000
9126 4 1.810 -0.005 13.227 0.004 -0.010 -0.002 -0.000
96 4 -0.189 1.398 0.357 -0.003 -0.001 0.011 -0.000
1005 4 2.874 14.472 8.662 0.016 -0.001 -0.002 -0.000
9168 4 1.972 -3.511 3.731 -0.004 0.001 -0.004 0.000
5360 4 0.497 10.667 11.562 0.009 -0.006 -0.003 -0.000
5439 4 3.484 9.923 9.857 0.004 -0.001 -0.002 -0.000
23831 4 3.365 10.700 7.541 0.003 -0.001 -0.003 -0.000
6515 4 -4.580 3.490 14.536 -0.008 -0.000 -0.010 -0.000
19490 4 3.495 5.445 2.088 -0.005 -0.003 -0.008 -0.000
12795 4 2.037 1.069 2.025 0.002 0.005 0.000 0.000
940 4 6.481 11.113 6.678 0.003 0.005 -0.005 -0.000
1731 4 6.166 6.363 11.794 -0.001 0.005 -0.004 -0.000
18603 4 6.111 3.602 -0.825 0.008 0.003 0.003 0.000
19324 4 4.433 13.286 -1.206 0.002 -0.003 -0.002 0.000
6080 4 -3.213 -1.788 16.553 -0.004 0.008 -0.012 -0.000
294 4 4.946 8.899 7.232 0.007 0.014 -0.011 0.000
1422 4 9.995 10.640 14.852 0.006 -0.004 -0.001 0.000
1372 4 3.017 7.999 8.186 0.001 -0.001 0.001 -0.000
2577 4 7.607 10.959 16.647 -0.005 -0.003 0.004 0.000
900 4 8.685 3.206 6.156 0.003 -0.004 0.005 0.000
9970 4 0.734 -4.723 14.466 0.003 -0.006 -0.004 0.000
648 4 2.959 7.897 -1.131 -0.005 0.009 -0.001 -0.000
576 4 11.580 13.022 -1.532 0.001 0.005 0.010 0.000
9487 4 -1.261 0.646 5.233 0.005 0.003 -0.010 -0.000
659 4 7.742 12.535 11.707 -0.006 0.004 -0.004 0.000
18934 4 5.545 8.002 -1.865 0.003 0.001 0.004 -0.000
19289 4 1.200 4.622 0.599 -0.002 0.003 -0.008 -0.000
933 4 11.783 13.967 4.284 -0.011 0.015 0.008 -0.000
23399 4 -3.164 6.985 0.297 0.004 -0.002 0.003 -0.000
2619 4 8.320 12.101 18.614 0.002 0.001 -0.000 -0.000
691 4 7.551 9.301 0.792 0.001 -0.000 0.010 -0.000
2185 4 9.450 6.151 15.387 -0.001 -0.008 0.012 -0.000
3688 4 3.892 1.314 18.544 0.000 -0.004 -0.008 0.000
613 4 2.660 9.560 0.200 0.009 0.002 0.007 0.000
138 4 5.255 13.228 4.883 0.005 -0.001 -0.001 -0.000
2860 4 8.735 0.276 11.969 0.005 -0.004 0.006 -0.000
2524 4 -1.273 4.067 14.115 -0.000 -0.005 0.004 0.000
6553 4 0.210 11.203 7.499 0.010 -0.008 0.000 -0.000
1252 4 2.333 4.054 11.361 -0.000 -0.003 -0.006 0.000
58 4 11.127 -3.259 0.917 -0.002 -0.005 -0.008 -0.000
2144 4 11.612 6.298 10.439 0.004 -0.009 0.001 0.000
2853 4 5.107 7.132 18.772 0.002 -0.001 -0.002 0.000
2021 4 8.950 -4.130 18.649 0.008 -0.008 -0.005 -0.000
802 4 -0.931 -0.768 12.237 -0.010 0.000 0.004 -0.000
19217 4 3.494 2.446 0.360 0.002 -0.011 0.003 0.000
8348 4 10.591 -0.787 0.571 0.013 0.007 0.002 0.000
23638 4 2.302 -1.233 2.325 -0.000 -0.016 0.005 -0.000
2563 4 -0.255 8.789 14.201 -0.002 -0.004 0.018 -0.000
3091 4 5.317 11.819 20.931 -0.004 -0.006 -0.001 -0.000
1707 4 6.265 9.086 20.521 0.007 0.010 0.008 0.000
4157 4 -4.573 3.229 1.986 0.008 -0.008 0.015 -0.000
9969 4 1.259 -0.587 10.812 -0.014 0.004 -0.006 -0.000
19931 4 12.048 14.112 1.352 0.002 -0.006 -0.000 0.000
491 4 8.876 3.506 -2.793 0.006 0.003 0.008 0.000
449 4 -4.070 10.059 10.087 -0.005 -0.001 0.003 -0.000
2406 4 -4.220 -1.554 18.851 0.006 0.004 0.001 0.000
3045 4 -1.076 11.392 13.405 -0.008 -0.001 0.001 -0.000
23720 4 1.287 11.157 2.964 0.002 -0.001 0.002 0.000
2207 4 -2.038 12.187 16.074 0.007 0.003 0.005 -0.000
19730 4 5.134 8.808 0.786 -0.003 -0.002 -0.002 -0.000
18607 4 3.660 8.765 -3.496 -0.009 0.006 -0.011 -0.000
217 4 12.861 -0.584 7.796 0.006 0.000 -0.000 -0.000
1409 4 0.736 6.939 16.865 0.004 0.003 -0.001 -0.000
6550 4 5.226 -1.170 9.975 0.004 -0.002 -0.009 -0.000
1367 4 -0.032 8.180 11.591 -0.002 0.005 -0.007 0.000
894 4 10.891 -3.021 8.304 -0.001 0.001 -0.013 0.000
697 4 10.294 8.957 -0.680 0.012 0.004 0.000 -0.000
2506 4 13.225 2.715 15.471 -0.004 0.006 0.003 -0.000
3029 4 10.564 6.629 19.774 -0.007 0.011 -0.007 -0.000
19304 4 7.403 1.040 -2.575 0.005 0.005 0.004 0.000
1779 4 9.886 12.912 2.749 -0.001 -0.001 0.016 0.000
8330 4 9.506 0.704 2.135 -0.010 -0.003 -0.001 0.000
2691 4 0.062 12.824 17.327 -0.008 0.008 0.003 -0.000
3365 4 4.750 12.836 7.508 0.012 0.006 0.005 -0.000
23469 4 0.393 9.395 0.073 0.003 0.003 0.009 -0.000
5274 4 -2.930 -0.192 13.563 -0.001 0.007 0.002 -0.000
19686 4 5.984 11.611 0.715 0.004 -0.016 0.000 0.000
490 4 -3.473 9.770 1.135 -0.007 0.004 -0.006 -0.000
213 4 9.520 6.701 -1.264 -0.007 0.005 0.001 -0.000
1730 4 11.562 11.475 10.734 0.012 0.006 -0.007 0.000
1729 4 0.805 13.605 8.054 0.010 0.003 0.011 0.000
2136 4 1.516 13.654 15.197 -0.001 -0.009 -0.002 -0.000
18860 4 1.440 7.014 -2.595 0.003 -0.003 -0.004 -0.000
13597 4 1.764 2.615 9.090 0.008 -0.003 -0.001 0.000
898 4 10.495 1.084 10.620 -0.001 -0.008 -0.007 -0.000
6315 4 3.574 9.899 14.923 0.005 -0.007 -0.016 0.000
9172 4 -2.625 10.500 3.981 -0.019 -0.005 -0.006 -0.000
19609 4 9.294 -2.792 -0.951 0.003 -0.010 0.009 0.000
9525 4 -1.039 1.715 7.787 0.003 0.002 -0.005 -0.000
2650 4 -3.505 12.820 19.672 0.012 -0.001 -0.012 -0.000
2495 4 8.780 2.206 19.279 -0.001 -0.004 0.006 0.000
4195 4 -4.366 8.723 -0.984 -0.003 -0.003 -0.004 0.000
247 4 9.277 14.590 5.349 0.009 0.009 -0.010 0.000
2935 4 7.943 14.696 21.753 0.003 0.003 0.012 -0.000
56 4 7.687 -2.713 -3.189 0.003 -0.004 -0.001 -0.000
282 4 2.073 7.289 1.056 0.008 -0.002 -0.005 -0.000
5634 4 -1.297 2.201 12.066 -0.003 -0.008 -0.006 -0.000
18042 4 -1.475 -1.144 -0.190 -0.003 0.007 0.010 -0.000
2007 4 5.033 -4.798 6.761 0.008 -0.004 0.001 -0.000
19329 4 4.430 3.620 -2.956 0.002 0.005 -0.006 0.000
19282 4 -3.811 -0.012 0.486 -0.004 0.001 -0.001 -0.000
2178 4 10.851 11.266 17.441 -0.005 -0.003 -0.005 0.000
3085 4 6.630 13.756 19.062 -0.004 0.005 0.011 -0.000
19729 4 7.075 10.930 -2.804 -0.008 -0.003 -0.008 -0.000
452 4 10.539 9.671 -3.336 0.000 -0.001 -0.001 -0.000
3339 4 10.538 4.219 19.580 0.006 0.004 0.001 -0.000
1044 4 -3.512 12.470 1.948 0.001 -0.009 -0.003 0.000
6033 4 -1.625 7.627 18.750 0.001 -0.004 -0.007 -0.000
4153 4 -5.261 11.111 0.093 -0.014 0.002 0.004 0.000
2416 4 2.006 -2.489 12.857 -0.012 -0.005 -0.009 -0.000
6071 4 -2.406 1.219 17.498 0.006 0.011 0.004 -0.000
10776 4 10.708 -3.122 20.599 -0.003 0.009 -0.008 0.000
2053 4 6.388 2.142 21.656 0.007 0.004 0.005 -0.000
3244 4 1.012 9.812 19.585 0.007 -0.006 -0.002 0.000
19697 4 3.632 6.124 -3.201 0.002 0.002 0.000 0.000
19702 4 12.849 -3.482 -3.112 -0.016 0.005 -0.000 -0.000
19406 4 2.152 -0.475 -3.506 0.007 0.008 0.001 0.000
13556 4 -2.984 3.310 16.288 -0.012 0.007 0.001 -0.000
616 4 -1.336 11.096 1.810 0.004 -0.006 -0.004 0.000
822 4 13.105 -3.602 3.361 -0.001 -0.002 0.011 0.000
19618 4 9.812 11.582 -2.078 0.007 -0.004 -0.012 -0.000
19806 4 4.907 10.733 -1.035 0.002 -0.003 -0.002 -0.000
19722 4 -3.173 6.500 -1.967 -0.003 -0.002 0.000 0.000
6476 4 -0.111 4.440 16.157 0.004 -0.005 0.011 -0.000
4840 4 -3.300 11.873 6.066 -0.015 -0.006 0.009 0.000
8368 4 7.361 -4.430 12.095 0.007 -0.008 0.003 0.000
3892 4 3.630 12.254 15.021 -0.008 -0.001 -0.003 0.000
3456 4 12.376 11.819 13.758 -0.004 0.008 0.012 -0.000
3405 4 -0.283 14.083 21.136 0.003 0.000 -0.004 0.000
9561 4 -0.340 -3.981 -0.510 -0.005 0.007 0.023 -0.000
87 4 5.622 -1.740 -2.752 -0.008 -0.003 -0.000 -0.000
475 4 10.933 3.773 -4.362 -0.009 0.009 0.000 0.000
59 4 11.916 6.867 0.385 0.010 -0.005 -0.002 -0.000
13199 4 6.667 -2.337 4.094 0.006 -0.003 -0.007 -0.000
1455 4 12.866 13.368 8.733 0.012 -0.011 -0.002 -0.000
3693 4 8.014 1.959 16.430 -0.005 0.002 0.004 0.000
19608 4 -1.016 -2.750 3.476 0.002 0.000 -0.002 -0.000
24 4 11.469 -3.204 5.428 -0.001 -0.004 0.001 -0.000
10775 4 11.695 -4.262 10.622 -0.001 -0.007 -0.006 0.000
2973 4 14.689 12.051 12.582 -0.006 -0.018 -0.004 0.000
2133 4 12.380 7.985 5.488 0.003 -0.003 -0.014 -0.000
983 4 10.892 9.203 9.732 -0.002 0.009 -0.002 -0.000
12396 4 -0.229 1.172 9.875 -0.013 -0.002 -0.009 0.000
6717 4 -4.596 8.679 19.015 -0.002 0.005 -0.002 0.000
85 4 -3.850 12.831 -2.800 -0.008 -0.013 0.005 0.000
7437 4 -0.483 12.948 10.737 0.009 0.006 -0.001 0.000
2699 4 5.844 13.222 16.211 0.010 0.001 0.010 -0.000
19215 4 5.019 1.419 -1.938 0.003 -0.014 0.012 0.000
455 4 11.215 6.844 3.025 -0.004 0.000 0.004 -0.000
1807 4 -1.137 14.081 14.488 -0.001 0.009 -0.000 -0.000
8388 4 13.143 -1.528 1.447 0.009 0.001 -0.000 0.000
5471 4 -5.220 12.670 4.154 0.003 0.002 -0.005 0.000
9962 4 -3.780 -2.615 12.353 0.006 0.002 -0.001 -0.000
6036 4 2.913 -1.317 19.438 -0.003 -0.006 0.005 0.000
949 4 11.710 0.357 -4.049 0.007 0.001 -0.000 0.000
1734 4 -1.014 0.930 20.439 -0.005 0.004 -0.001 -0.000
6 4 -3.858 2.702 -1.387 -0.007 -0.008 -0.001 0.000
4154 4 -3.293 10.334 -4.144 -0.012 0.007 -0.005 -0.000
815 4 9.397 -4.887 7.538 0.000 -0.008 -0.015 -0.000
3641 4 2.706 -3.989 19.318 -0.007 0.004 0.008 0.000
1260 4 8.929 -3.604 2.305 -0.004 -0.003 -0.007 0.000
1380 4 12.594 0.482 -0.940 0.006 -0.005 -0.006 0.000
1257 4 8.573 -1.863 20.179 -0.008 -0.008 -0.004 0.000
1819 4 12.565 0.864 12.110 -0.003 0.003 0.004 -0.000
6913 4 -3.062 4.015 12.338 -0.004 0.003 0.006 -0.000
543 4 11.627 7.297 -2.337 -0.002 0.004 -0.000 -0.000
41 4 -3.613 3.455 10.191 -0.009 0.005 -0.007 0.000
1386 4 9.794 12.914 9.966 0.002 -0.011 0.006 0.000
420 4 12.956 1.045 5.355 0.004 0.007 0.004 -0.000
5315 4 -3.631 3.074 19.147 0.008 0.007 0.011 0.000
9933 4 -0.453 -2.936 9.321 0.014 0.002 0.001 -0.000
4476 4 -2.613 -3.408 6.091 0.003 0.003 0.008 0.000
2498 4 13.318 9.683 8.286 -0.004 -0.001 0.002 -0.000
6997 4 -3.906 14.875 10.971 -0.005 -0.003 0.005 0.000
8778 4 14.136 -4.949 6.956 -0.008 -0.010 0.001 0.000
8362 4 -2.001 -3.705 1.064 0.010 0.001 0.001 -0.000
3293 4 -3.830 5.773 15.174 0.002 0.009 -0.004 -0.000
19774 4 2.953 11.357 -2.135 0.000 -0.005 0.001 0.000
505 4 13.762 6.798 -0.956 -0.004 0.005 -0.000 -0.000
1363 4 -2.281 3.116 3.542 0.004 -0.004 -0.001 0.000
4073 4 -0.757 2.893 -2.272 -0.016 -0.006 0.021 0.000
9124 4 -3.509 -1.978 2.500 -0.001 -0.004 0.001 0.000
19655 4 1.270 -1.654 -0.316 -0.001 0.003 -0.010 -0.000
5319 4 -4.748 -0.828 10.948 0.001 -0.004 -0.003 0.000
150 4 13.053 8.169 2.114 -0.003 -0.008 -0.000 -0.000
4955 4 -1.227 1.496 14.706 -0.001 0.000 0.003 -0.000
9966 4 5.251 -2.926 5.895 0.008 0.001 -0.002 0.000
1402 4 3.398 14.245 16.590 0.004 -0.005 0.004 -0.000
2494 4 -2.673 5.645 17.364 0.005 -0.014 -0.010 0.000
1006 4 -1.493 13.336 -3.458 -0.004 -0.001 -0.012 -0.000
2216 4 9.238 14.217 19.573 -0.006 0.004 0.001 -0.000
2029 4 11.199 -4.678 14.021 -0.003 -0.003 -0.003 -0.000
2422 4 4.753 -3.032 15.717 0.009 0.001 0.005 0.000
3253 4 10.578 9.181 19.324 0.010 -0.001 -0.000 0.000
2889 4 11.910 2.964 17.523 -0.012 0.002 -0.003 0.000
1745 4 14.192 13.233 15.171 -0.008 -0.006 0.002 0.000
6473 4 0.642 -2.417 18.726 -0.006 -0.008 0.002 -0.000
298 4 2.031 13.582 -2.472 -0.001 -0.005 -0.004 0.000
81 4 -1.872 9.710 7.537 -0.003 0.000 0.003 -0.000
3695 4 13.229 3.316 21.431 0.004 -0.006 -0.013 -0.000
5039 4 -4.288 13.324 8.641 -0.003 0.001 -0.003 -0.000
122 4 -3.290 6.961 5.704 -0.004 0.009 -0.007 0.000
3132 4 1.827 12.793 19.367 0.005 -0.008 0.005 0.000
2011 4 11.816 0.690 1.745 0.000 0.003 0.002 -0.000
6877 4 -1.951 6.843 12.672 0.009 0.016 -0.004 -0.000
9973 4 11.514 -2.885 12.403 -0.002 0.005 0.000 0.000
3250 4 12.616 5.491 20.333 0.002 0.003 0.006 0.000
2481 4 -1.769 -2.433 13.949 0.004 -0.008 -0.000 -0.000
489 4 -2.675 0.996 9.123 0.002 -0.011 0.006 -0.000
860 4 11.295 -1.630 -1.977 0.005 -0.008 0.002 -0.000
19212 4 -1.975 -2.656 -4.175 -0.007 0.001 0.008 0.000
2169 4 -1.190 3.548 18.421 -0.002 0.000 0.001 -0.000
3089 4 -3.828 11.905 14.632 0.001 -0.002 0.007 -0.000
3013 4 10.685 12.073 19.964 -0.007 0.004 -0.015 0.000
2409 4 5.304 -0.730 19.405 0.012 0.006 -0.003 -0.000
27570 4 -1.630 0.451 -4.106 -0.006 0.007 -0.002 -0.000
19823 4 13.544 11.359 -2.583 -0.010 -0.006 0.004 0.000
19336 4 8.376 8.624 -2.660 -0.002 -0.001 0.006 -0.000
2513 4 13.028 -1.595 14.095 0.011 0.003 0.008 -0.000
19684 4 13.636 8.589 -3.027 -0.005 -0.005 0.008 -0.000
9972 4 3.409 -4.681 9.075 0.011 -0.009 -0.007 0.000
1607 4 9.078 -2.423 12.913 0.001 -0.002 -0.002 -0.000
19311 4 14.064 -4.025 0.581 0.013 0.003 0.003 -0.000
1621 4 13.639 -3.054 16.470 0.001 -0.001 0.003 -0.000
8286 4 -2.582 -4.449 3.973 -0.001 -0.003 -0.003 0.000
848 4 -2.742 -1.323 5.029 -0.004 0.014 0.005 -0.000
3608 4 4.613 -2.944 20.849 -0.001 -0.003 0.007 0.000
108 4 9.245 6.721 -3.944 0.005 -0.000 -0.000 0.000
19647 4 8.782 -0.716 -3.493 -0.002 0.013 -0.001 -0.000
17854 4 6.630 5.400 -2.700 0.000 -0.002 0.012 0.000
214 4 13.587 5.531 2.795 -0.005 -0.002 0.013 -0.000
5240 4 0.156 3.550 20.851 0.006 0.005 -0.003 0.000
18978 4 13.465 2.690 -0.666 -0.003 -0.011 -0.005 0.000
10364 4 13.421 -3.686 19.237 -0.004 0.002 0.000 -0.000
19361 4 6.579 13.885 -0.273 -0.012 0.001 0.015 -0.000
19307 4 14.082 0.584 -2.952 0.002 0.003 -0.000 0.000
4640 4 -4.654 8.794 6.661 -0.006 0.004 0.005 -0.000
27170 4 -3.265 2.207 -3.486 -0.000 0.004 0.004 -0.000
1401 4 -3.061 5.293 7.775 0.014 -0.006 0.007 -0.000
44 4 4.615 -4.756 -1.712 -0.002 0.007 0.007 -0.000
19419 4 -0.775 5.456 -3.054 0.006 0.006 0.007 -0.000
1010 4 -0.536 13.050 3.792 -0.001 -0.005 0.001 -0.000
2245 4 9.276 14.713 13.839 -0.002 -0.011 -0.003 -0.000
19292 4 5.631 13.319 -3.442 -0.002 -0.005 -0.003 -0.000
1297 4 14.441 4.628 14.088 0.004 0.003 0.006 -0.000
1656 4 7.007 -4.661 5.366 -0.008 -0.001 0.001 0.000
3260 4 10.583 1.219 20.271 0.001 -0.007 0.005 -0.000
18947 4 13.594 10.282 4.292 0.006 0.003 -0.004 0.000
6239 4 -3.200 8.149 11.253 0.005 -0.005 -0.007 -0.000
5639 4 -3.788 -4.755 7.758 0.012 -0.007 -0.013 -0.000
6546 4 -3.883 0.767 15.443 0.002 -0.001 0.003 -0.000
6119 4 -3.429 2.384 6.987 0.005 -0.002 -0.004 0.000
31999 4 -3.544 -1.203 -1.885 -0.006 0.001 0.000 -0.000
1264 4 12.265 -1.422 10.264 0.004 0.011 -0.006 -0.000
66 4 13.912 1.029 3.007 -0.012 -0.005 -0.006 0.000
2418 4 13.773 1.046 17.035 0.002 0.005 0.005 -0.000
2897 4 8.059 7.990 19.812 0.005 0.005 -0.002 -0.000
1685 4 -1.411 -3.024 20.451 0.003 -0.002 0.002 -0.000
5706 4 1.173 6.546 20.902 0.003 -0.012 -0.005 -0.000
5000 4 -2.822 4.412 -2.761 -0.003 -0.004 -0.002 0.000
3845 4 -3.604 7.679 16.897 0.003 0.009 0.004 0.000
8381 4 10.455 -2.961 -3.800 -0.001 0.006 0.002 0.000
27926 4 -2.436 -4.179 -1.877 -0.001 0.021 -0.007 0.000
8390 4 13.488 -2.457 6.245 -0.003 0.001 -0.002 0.000
1818 4 9.350 13.926 -0.252 -0.001 0.002 -0.002 -0.000
928 4 0.415 12.665 1.781 0.012 -0.000 -0.003 -0.000
2576 4 11.412 13.756 17.371 0.000 -0.002 0.004 -0.000
2105 4 14.028 -2.909 8.417 -0.011 -0.002 -0.003 -0.000
1827 4 13.865 10.219 11.881 0.009 -0.003 0.011 -0.000
6596 4 -1.826 14.104 18.924 0.007 0.004 0.000 0.000
1324 4 -4.573 -2.180 14.417 0.011 0.004 -0.005 0.000
579 4 10.275 12.559 -4.195 -0.001 -0.007 0.004 -0.000
8644 4 -4.707 0.918 5.511 -0.006 -0.005 0.010 -0.000
1410 4 8.247 13.681 -2.716 -0.007 0.003 -0.011 0.000
2485 4 -2.224 5.040 19.973 -0.006 0.007 0.003 -0.000
173 4 11.828 13.038 6.588 -0.004 -0.001 -0.008 -0.000
7717 4 1.503 -3.654 16.269 0.012 -0.002 -0.006 -0.000
970 4 13.313 11.904 0.055 -0.005 -0.007 -0.009 0.000
2181 4 14.069 3.635 18.646 -0.003 -0.008 0.007 -0.000
1726 4 -3.928 0.729 21.122 -0.001 -0.007 0.004 0.000
3421 4 13.973 7.966 21.031 -0.008 -0.004 -0.007 -0.000
2099 4 12.776 0.784 9.791 -0.016 0.003 -0.007 0.000
11098 4 1.473 -4.218 10.455 -0.009 -0.000 -0.006 -0.000
6992 4 2.669 4.242 20.465 -0.005 -0.000 0.007 -0.000
2497 4 14.005 6.071 11.120 -0.002 -0.004 -0.009 -0.000
8762 4 -4.125 -1.959 7.204 0.001 -0.007 -0.000 -0.000
3377 4 11.769 7.549 21.878 0.009 -0.010 0.008 -0.000
6109 4 -3.687 6.876 20.984 -0.006 -0.009 -0.006 0.000
11488 4 -3.972 -4.220 19.531 -0.005 -0.010 -0.004 -0.000
19386 4 6.143 9.131 -4.017 -0.006 -0.004 0.005 -0.000
19688 4 -4.893 5.181 0.172 0.006 0.009 0.000 -0.000
1674 4 14.211 -1.202 11.711 0.005 0.001 0.002 -0.000
19445 4 -5.049 5.854 -4.676 0.003 -0.012 -0.001 0.000
129 4 -4.981 -1.106 4.255 -0.001 0.006 -0.003 0.000
281 4 -3.471 14.372 4.411 -0.004 0.005 -0.001 0.000
6917 4 -3.799 -2.363 21.190 -0.001 0.006 0.003 -0.000
3373 4 3.461 8.704 20.265 0.009 -0.002 0.014 0.000
5678 4 -4.538 10.481 12.737 -0.004 0.001 0.003 0.000
1606 4 -0.351 -4.285 5.201 -0.004 0.003 -0.005 -0.000
4874 4 -4.444 3.723 4.920 -0.004 0.002 0.005 -0.000
1647 4 4.275 -3.800 11.795 0.004 0.003 -0.005 -0.000
4517 4 -3.646 5.460 3.169 0.002 0.004 -0.006 -0.000
13200 4 0.949 -4.455 7.696 -0.002 -0.001 -0.001 0.000
10368 4 4.009 -5.061 4.376 -0.007 -0.005 0.006 0.000
2408 4 12.344 -1.544 21.494 0.003 -0.012 -0.003 0.000
496 4 2.554 2.080 -3.543 -0.003 -0.005 -0.003 0.000