ITEM: TIMESTEP
41000
ITEM: NUMBER OF ATOMS
32000
ITEM: BOX BOUNDS pp pp pp
-5.422672 75.902672
-4.233936 74.713936
-5.841204 76.321204
ITEM: ATOMS id type x y z vx vy vz q
531 4 3.707 8.706 11.470 -0.002 0.000 -0.001 -0.000
1767 4 12.672 7.900 6.034 0.010 0.001 0.001 -0.000
2528 4 9.866 6.509 9.081 -0.004 -0.010 0.007 -0.000
9974 4 -1.892 0.240 -3.298 0.014 0.000 -0.010 -0.000
19736 4 9.451 14.169 10.789 -0.008 -0.006 -0.006 0.000
6480 4 -2.177 2.619 -4.055 0.001 -0.013 0.012 -0.000
1282 4 5.069 8.648 9.261 0.012 0.006 -0.007 0.000
19408 4 5.526 11.501 8.401 0.003 -0.006 -0.004 0.000
565 4 10.718 0.350 -3.924 -0.003 -0.004 0.001 -0.000
5360 4 2.754 -0.176 17.087 0.001 -0.004 0.014 0.000
19490 4 1.131 5.315 8.775 -0.002 0.004 0.009 0.000
900 4 5.300 12.144 19.416 -0.001 -0.000 0.002 0.000
19217 4 9.775 2.016 10.660 -0.002 -0.001 -0.003 0.000
23469 4 5.007 7.018 2.517 -0.004 0.003 0.003 -0.000
490 4 -0.992 6.035 3.536 0.011 0.004 -0.007 0.000
19282 4 4.197 8.029 4.738 -0.003 -0.004 0.003 0.000
85 4 11.538 11.083 10.110 -0.000 -0.005 0.006 -0.000
2126 4 2.151 6.495 11.334 0.002 -0.000 0.005 -0.000
404 4 0.254 5.502 6.283 -0.004 0.007 0.003 -0.000
23632 4 4.988 -3.147 10.477 0.003 0.003 -0.001 -0.000
3307 4 2.603 2.181 8.753 0.002 -0.000 -0.008 0.000
526 4 12.366 10.750 13.105 -0.004 0.004 -0.001 -0.000
18442 4 3.362 1.033 -1.339 -0.000 -0.016 -0.007 0.000
10374 4 12.296 4.645 7.981 -0.008 0.005 0.005 0.000
4517 4 10.950 2.071 -0.121 -0.003 -0.003 0.007 0.000
1096 4 8.087 3.186 2.803 0.005 -0.028 0.008 -0.000
949 4 10.286 5.624 1.926 -0.002 -0.003 0.016 -0.000
2007 4 5.221 1.893 8.573 0.005 -0.007 0.009 -0.000
648 4 6.888 9.222 3.061 0.005 -0.006 -0.008 0.000
496 4 -1.493 13.680 7.734 0.003 0.005 0.001 0.000
23707 4 0.839 11.370 3.699 0.005 0.007 0.006 0.000
2215 4 6.295 1.094 2.810 0.009 0.008 0.001 -0.000
10684 4 4.615 -0.393 9.296 0.013 -0.008 0.004 0.000
202 4 7.372 4.406 4.940 0.004 -0.007 -0.010 -0.000
844 4 5.818 7.018 7.531 0.009 -0.010 -0.005 -0.000
4074 4 2.050 8.756 3.827 -0.007 0.013 0.010 0.000
3365 4 -2.372 7.550 13.360 -0.002 0.002 0.010 0.000
1367 4 -3.068 4.927 19.493 0.002 -0.009 0.001 -0.000
13152 4 3.747 4.105 10.337 0.007 -0.006 -0.002 0.000
445 4 13.485 0.937 -0.467 0.012 -0.008 -0.003 -0.000
6067 4 0.101 9.122 13.518 0.008 0.003 -0.005 -0.000
9487 4 9.358 -2.687 -1.110 -0.003 -0.003 0.006 -0.000
13597 4 9.962 4.075 8.665 -0.001 0.000 -0.000 0.000
1801 4 9.205 8.394 -2.451 0.008 -0.007 -0.005 -0.000
7718 4 12.000 7.885 12.490 -0.000 0.000 -0.000 0.000
8731 4 5.207 0.004 11.725 0.005 0.003 0.005 0.000
18934 4 3.078 7.495 -1.825 0.004 -0.008 0.011 0.000
6029 4 8.190 1.986 7.938 -0.013 0.003 0.001 -0.000
12360 4 -0.414 4.937 -5.039 0.004 -0.002 -0.000 0.000
18852 4 10.521 2.634 3.931 0.006 -0.002 0.002 0.000
894 4 2.033 1.175 5.125 -0.003 0.006 0.007 0.000
2981 4 6.115 10.182 11.065 0.002 -0.005 0.017 -0.000
6589 4 2.448 11.947 14.423 0.010 0.003 -0.004 0.000
9884 4 -1.070 7.424 7.168 -0.005 -0.001 -0.007 0.000
614 4 0.680 7.792 5.294 0.002 -0.009 -0.003 -0.000
10296 4 0.907 10.443 15.510 0.009 -0.011 -0.002 -0.000
4480 4 6.622 7.743 10.794 0.003 0.003 -0.008 -0.000
2093 4 8.775 8.246 10.303 0.017 -0.007 0.009 -0.000
19782 4 9.820 12.163 6.303 0.001 0.011 -0.006 0.000
23396 4 6.942 0.847 9.851 0.006 -0.007 0.011 0.000
6225 4 13.137 4.053 15.445 -0.003 -0.002 0.000 -0.000
201 4 7.655 2.193 0.554 -0.003 -0.007 -0.002 -0.000
2853 4 14.270 5.808 13.647 0.004 0.004 0.007 0.000
1777 4 8.271 7.387 7.544 -0.009 0.002 0.006 0.000
217 4 -0.934 3.975 7.486 -0.007 0.001 -0.007 -0.000
27169 4 0.830 2.645 2.758 -0.012 -0.003 0.004 -0.000
22436 4 11.150 0.122 1.571 0.005 0.016 0.012 -0.000
173 4 9.386 4.763 3.842 0.003 0.010 -0.007 -0.000
539 4 9.684 8.159 2.102 0.007 -0.011 -0.005 0.000
23635 4 7.205 10.593 13.403 0.008 0.006 0.001 -0.000
8323 4 12.671 5.585 3.268 -0.006 0.005 -0.001 -0.000
855 4 7.349 5.873 9.501 -0.003 0.001 -0.016 0.000
3048 4 0.908 12.670 6.051 0.008 -0.007 0.003 -0.000
1221 4 8.825 11.077 -2.129 -0.005 0.002 0.013 -0.000
5753 4 8.130 9.630 18.180 -0.007 -0.002 0.003 0.000
2103 4 11.458 -0.839 8.166 -0.014 0.007 0.004 0.000
5473 4 1.298 12.842 1.872 -0.010 0.009 -0.003 -0.000
6878 4 9.092 -1.632 14.306 0.005 -0.005 -0.009 0.000
3830 4 13.195 5.968 10.772 0.003 0.005 -0.005 0.000
1881 4 1.485 -2.700 17.727 0.001 0.003 0.000 -0.000
2931 4 2.475 -3.156 20.056 0.000 -0.008 0.007 0.000
2647 4 1.469 3.458 6.415 0.007 -0.004 0.005 0.000
6427 4 -3.966 13.134 7.279 -0.000 -0.002 -0.007 -0.000
1364 4 7.217 5.771 15.420 -0.007 -0.002 -0.009 0.000
8326 4 3.526 1.444 11.564 0.007 -0.001 -0.004 -0.000
4599 4 10.746 15.010 1.814 -0.005 0.014 -0.015 -0.000
424 4 9.953 -1.805 10.690 -0.002 -0.010 -0.004 0.000
17343 4 13.636 2.406 13.384 -0.004 -0.004 0.014 -0.000
12796 4 3.556 -2.111 12.289 0.013 -0.004 -0.006 -0.000
12396 4 10.640 12.034 14.335 -0.008 -0.000 -0.009 0.000
27579 4 5.858 4.302 6.335 0.004 0.003 0.002 0.000
9533 4 8.393 -3.427 12.937 0.001 -0.004 -0.015 -0.000
16513 4 5.277 12.419 5.873 -0.001 0.003 0.009 0.000
19376 4 5.294 4.856 -2.808 0.002 -0.000 -0.003 0.000
12393 4 11.296 1.589 14.786 -0.005 0.003 0.004 -0.000
3435 4 2.362 8.269 13.445 0.000 0.003 0.007 0.000
2422 4 9.244 11.352 10.176 -0.007 0.002 -0.003 0.000
13116 4 5.516 3.896 14.781 -0.006 0.006 0.005 -0.000
2087 4 6.309 3.878 -4.992 0.007 0.005 -0.002 0.000
505 4 7.418 12.239 17.628 0.000 -0.010 0.003 -0.000
7072 4 5.116 0.706 18.427 -0.004 -0.007 0.004 -0.000
1409 4 9.684 5.724 16.738 -0.001 -0.000 -0.011 0.000
9886 4 4.060 4.167 12.848 0.003 -0.011 0.011 0.000
564 4 7.383 1.881 5.013 0.004 -0.009 -0.008 -0.000
4313 4 1.962 10.352 2.182 0.002 -0.005 -0.001 -0.000
7019 4 3.505 12.002 18.086 0.002 0.005 0.010 -0.000
1443 4 5.800 2.875 11.039 0.002 -0.010 0.002 -0.000
16555 4 9.910 10.133 12.087 0.001 -0.004 0.004 0.000
2124 4 4.439 12.143 15.773 -0.008 0.006 0.017 -0.000
1336 4 3.460 9.309 15.658 -0.004 -0.008 0.003 -0.000
1774 4 7.319 -1.287 11.303 0.009 0.007 -0.003 -0.000
5068 4 10.220 9.230 14.076 0.000 0.005 0.007 -0.000
6550 4 8.772 -0.580 8.498 -0.000 0.007 0.004 -0.000
6154 4 0.028 4.745 12.931 -0.004 -0.004 -0.002 0.000
573 4 7.275 9.616 -1.252 0.000 0.001 0.003 0.000
6673 4 2.844 12.534 7.828 0.007 0.002 -0.004 -0.000
178 4 7.376 9.585 8.723 0.005 0.006 -0.001 0.000
1216 4 6.181 0.376 -0.137 0.011 -0.003 -0.002 -0.000
58 4 10.792 7.018 4.389 0.008 -0.003 -0.007 0.000
3366 4 12.118 9.713 15.790 0.001 0.001 0.005 -0.000
5267 4 -1.212 6.881 17.172 -0.003 -0.004 -0.002 0.000
27566 4 -0.734 8.811 3.230 0.004 0.002 -0.007 0.000
18496 4 2.755 8.468 0.884 -0.009 0.000 -0.005 0.000
447 4 3.372 4.804 1.981 0.005 -0.004 0.004 0.000
15594 4 0.656 6.781 14.718 0.005 0.006 0.001 -0.000
19223 4 3.249 3.733 4.515 0.009 0.015 -0.007 -0.000
1206 4 9.593 5.874 13.941 0.006 0.004 -0.009 -0.000
5221 4 1.622 -2.463 10.346 0.000 0.006 0.001 -0.000
3246 4 6.314 14.274 7.765 -0.013 0.003 0.004 -0.000
19702 4 7.084 -3.709 3.832 0.002 -0.005 -0.001 0.000
8682 4 4.811 6.311 11.988 0.004 0.003 -0.002 0.000
9164 4 8.795 3.583 -4.368 0.000 0.010 0.013 -0.000
2506 4 12.993 0.125 6.664 0.002 0.003 -0.002 0.000
7471 4 4.498 7.472 16.526 0.000 -0.005 -0.000 -0.000
6472 4 9.738 1.507 16.621 0.002 0.009 0.006 0.000
16043 4 5.038 0.674 15.752 -0.004 0.009 -0.023 0.000
19309 4 1.032 0.381 7.946 0.006 0.007 0.001 -0.000
11888 4 10.422 8.139 16.486 0.005 0.011 0.010 0.000
2867 4 7.635 8.032 0.613 -0.003 -0.005 -0.007 -0.000
1643 4 7.475 3.746 13.426 -0.003 0.003 -0.006 0.000
20079 4 4.940 11.788 13.363 -0.002 0.005 0.010 0.000
6911 4 9.326 3.345 15.002 0.009 -0.007 -0.001 -0.000
3608 4 12.164 0.578 4.242 0.006 0.011 0.004 -0.000
493 4 3.924 0.011 1.451 0.001 0.002 -0.003 -0.000
46 4 -1.420 3.936 4.449 -0.008 0.000 0.006 -0.000
81 4 -0.859 8.627 15.508 0.006 0.002 0.006 0.000
1098 4 -2.551 5.520 6.215 -0.006 -0.004 0.017 0.000
20669 4 11.435 1.873 12.022 0.002 0.002 -0.008 0.000
5674 4 0.205 3.983 16.349 -0.004 -0.001 0.003 0.000
1004 4 7.604 4.023 -1.312 0.007 0.000 0.001 0.000
2221 4 -0.723 4.765 18.621 0.003 0.000 -0.006 -0.000
19645 4 7.896 4.860 7.577 -0.003 -0.010 -0.003 -0.000
487 4 10.394 9.353 7.799 0.001 0.005 0.003 -0.000
19699 4 6.450 6.851 4.636 -0.003 0.006 0.007 -0.000
18845 4 3.184 5.365 16.449 -0.003 0.006 0.001 -0.000
6987 4 8.370 7.445 17.611 0.006 -0.013 -0.007 -0.000
10698 4 4.805 3.156 17.317 0.005 0.007 0.012 -0.000
19244 4 8.270 -1.649 6.339 0.009 -0.004 -0.010 -0.000
1404 4 7.649 5.611 11.821 0.005 -0.008 -0.004 -0.000
6100 4 -1.782 7.349 19.897 0.001 -0.010 0.002 -0.000
4428 4 8.163 1.381 -1.913 0.002 -0.000 -0.003 0.000
18861 4 4.717 2.032 0.677 -0.007 -0.012 -0.000 0.000
6913 4 12.037 6.743 15.414 0.007 -0.002 -0.006 -0.000
6470 4 7.419 1.553 12.085 -0.004 -0.005 0.004 0.000
23478 4 6.652 9.616 16.100 -0.004 0.001 -0.004 0.000
2152 4 13.614 8.900 -2.177 -0.003 -0.006 -0.006 -0.000
19656 4 7.622 5.985 2.405 -0.002 -0.004 -0.002 0.000
1276 4 8.607 7.904 4.266 0.009 0.000 -0.006 0.000
1271 4 13.241 8.287 17.260 0.002 -0.011 0.009 0.000
3362 4 10.989 7.445 18.668 -0.011 -0.000 0.006 -0.000
1251 4 6.352 -0.475 13.697 -0.002 0.014 0.003 -0.000
2857 4 -3.268 9.783 14.800 0.014 0.002 -0.013 0.000
2516 4 4.995 9.785 6.737 -0.005 0.005 0.003 -0.000
11147 4 5.403 2.013 13.374 -0.009 -0.010 0.011 0.000
27926 4 -0.830 -1.680 11.471 -0.003 -0.006 -0.002 -0.000
2133 4 2.390 -1.495 4.245 -0.002 -0.008 -0.003 -0.000
5387 4 -3.307 8.274 17.506 -0.007 -0.004 0.007 -0.000
19806 4 11.554 9.178 1.422 -0.019 -0.002 -0.002 -0.000
2118 4 10.161 6.048 6.447 -0.007 0.002 -0.014 -0.000
2729 4 4.249 11.556 10.725 0.011 -0.012 0.008 -0.000
11066 4 10.807 5.956 11.575 0.011 -0.002 0.000 0.000
177 4 11.321 2.428 -2.662 -0.002 0.011 -0.007 0.000
2414 4 3.603 8.582 18.560 0.011 -0.009 -0.005 -0.000
3085 4 8.117 3.446 10.331 0.005 0.000 -0.012 -0.000
7474 4 -0.720 4.014 2.241 0.006 0.005 -0.002 0.000
1704 4 2.567 -4.000 2.844 -0.012 -0.002 -0.004 -0.000
4091 4 6.077 -2.811 12.945 0.002 -0.009 0.001 0.000
1293 4 2.234 10.157 5.821 0.000 0.002 0.010 0.000
150 4 4.451 -0.294 4.207 -0.004 -0.004 0.006 -0.000
6239 4 8.526 7.612 12.787 -0.010 -0.006 -0.010 0.000
10322 4 1.253 -1.290 12.788 0.006 0.011 0.008 0.000
13513 4 1.760 0.049 10.359 0.001 0.001 0.002 0.000
10282 4 12.920 2.453 6.217 0.001 -0.001 0.011 -0.000
9970 4 7.627 1.428 20.820 -0.001 0.001 0.003 -0.000
1673 4 12.212 -0.111 10.562 0.012 -0.003 -0.000 0.000
926 4 9.302 0.598 12.611 -0.003 0.000 -0.003 -0.000
8364 4 3.426 3.699 -0.583 -0.001 -0.000 -0.004 -0.000
2668 4 4.604 10.579 3.781 -0.004 0.004 -0.004 -0.000
7787 4 2.684 6.032 6.005 0.007 0.011 0.002 0.000
9052 4 0.347 -1.596 5.971 0.002 0.001 -0.004 0.000
14345 4 11.092 1.481 8.555 0.007 -0.001 0.001 -0.000
6833 4 1.174 -0.003 14.977 0.010 0.005 -0.009 -0.000
4073 4 0.944 7.039 -0.570 -0.003 0.003 0.013 0.000
899 4 7.430 1.446 14.881 0.001 0.008 0.009 -0.000
2895 4 9.114 13.118 15.639 0.001 -0.012 -0.003 -0.000
18858 4 11.081 9.535 3.997 -0.006 -0.011 0.008 -0.000
4640 4 1.447 9.250 -1.876 -0.005 0.002 0.010 0.000
27962 4 1.200 5.227 3.844 0.005 0.008 0.007 -0.000
18457 4 4.467 -2.370 -0.305 -0.008 0.003 0.007 -0.000
4556 4 6.321 -1.183 16.873 -0.005 -0.003 0.000 0.000
815 4 9.707 3.464 6.197 -0.000 0.003 0.007 -0.000
5755 4 1.129 4.653 0.685 0.012 -0.004 0.007 0.000
2531 4 11.916 11.975 7.519 0.002 -0.006 -0.003 0.000
13958 4 0.273 0.273 3.937 -0.000 -0.004 0.000 -0.000
846 4 7.808 9.761 6.121 0.008 -0.014 -0.010 0.000
281 4 1.581 -1.459 1.988 -0.001 0.007 0.005 0.000
1781 4 11.461 7.598 -1.362 0.002 0.003 0.005 0.000
591 4 14.443 4.698 4.633 0.004 0.013 0.010 0.000
8721 4 3.407 -0.665 -3.963 0.012 0.003 0.006 0.000
4558 4 1.746 7.609 16.707 0.002 -0.003 -0.003 -0.000
3468 4 8.157 6.381 19.896 0.002 0.008 0.001 0.000
174 4 1.089 7.034 2.082 0.009 0.008 0.004 -0.000
8757 4 13.003 9.906 5.307 -0.009 0.007 0.013 -0.000
12752 4 4.742 6.212 9.636 0.008 -0.013 0.005 -0.000
4033 4 8.814 0.772 2.879 -0.006 -0.012 -0.009 -0.000
777 4 3.898 12.240 -1.653 -0.000 0.001 -0.003 0.000
20276 4 -0.869 -2.646 15.680 0.002 -0.002 0.007 0.000
5709 4 3.713 7.952 7.450 0.003 0.002 0.001 0.000
27522 4 5.870 4.178 9.065 -0.000 -0.002 0.009 0.000
962 4 2.778 13.032 3.946 0.001 -0.002 -0.009 -0.000
6717 4 6.294 7.984 18.850 0.001 0.012 -0.008 -0.000
16548 4 2.118 11.203 -0.114 -0.005 -0.013 -0.007 0.000
251 4 9.977 6.262 -0.442 -0.001 0.000 0.007 -0.000
2524 4 0.215 1.005 12.333 0.006 0.003 0.001 0.000
16122 4 4.034 6.263 14.344 -0.003 -0.004 -0.001 -0.000
19923 4 1.658 2.894 -1.615 -0.006 0.006 0.003 0.000
1009 4 12.717 9.812 8.187 0.007 0.004 -0.004 0.000
4440 4 -0.623 3.366 11.157 -0.011 -0.009 0.002 -0.000
1900 4 9.019 4.381 0.719 -0.002 -0.004 -0.006 0.000
1809 4 13.847 -2.285 5.875 0.011 0.007 -0.014 0.000
11533 4 8.766 -2.535 19.982 0.008 0.007 -0.005 -0.000
3429 4 6.239 13.910 3.558 -0.008 0.002 -0.006 -0.000
5723 4 9.404 -2.968 8.119 0.012 -0.002 -0.001 0.000
2179 4 13.491 7.528 8.351 0.002 -0.007 0.004 0.000
5760 4 0.916 9.099 7.842 -0.005 0.001 0.005 -0.000
8333 4 13.765 2.236 8.518 0.005 -0.009 -0.006 0.000
7182 4 2.453 10.958 12.213 -0.013 -0.004 -0.001 -0.000
19734 4 1.038 6.866 -3.831 -0.002 0.006 0.007 0.000
1614 4 11.606 3.940 10.153 -0.003 -0.001 0.001 -0.000
1291 4 13.342 3.190 3.108 -0.000 0.002 0.007 0.000
4872 4 -3.138 2.930 6.428 -0.010 -0.011 0.005 -0.000
403 4 11.524 -2.711 5.832 0.007 -0.002 0.004 -0.000
6505 4 8.390 12.175 12.244 -0.003 0.015 -0.000 -0.000
3420 4 9.677 4.488 18.876 0.012 0.010 0.010 -0.000
10758 4 9.692 3.857 12.476 -0.005 -0.005 -0.002 0.000
17209 4 5.822 2.234 -1.915 0.007 -0.009 -0.003 -0.000
7277 4 -2.728 0.930 12.050 0.007 0.009 -0.011 -0.000
10005 4 6.213 11.990 -0.682 -0.012 0.004 -0.006 0.000
19801 4 -0.100 7.145 11.935 -0.002 0.001 -0.004 -0.000
11568 4 4.333 5.961 18.789 -0.003 -0.003 -0.006 0.000
14714 4 -2.253 -1.542 5.396 0.010 -0.009 0.006 0.000
11162 4 8.856 -1.732 16.729 -0.005 0.005 -0.000 -0.000
6274 4 3.537 9.589 -3.885 -0.010 -0.001 0.007 0.000
9685 4 4.605 9.937 -1.364 -0.007 0.009 0.004 -0.000
9946 4 7.750 0.260 18.340 0.005 -0.004 0.001 -0.000
19370 4 -3.375 11.351 -1.787 0.002 0.004 0.006 -0.000
7065 4 -2.240 7.801 1.701 0.002 -0.009 0.007 0.000
421 4 6.290 -0.287 7.034 0.004 0.009 0.006 0.000
19613 4 6.193 4.700 0.352 0.002 -0.002 0.004 -0.000
9137 4 9.804 -0.825 18.631 0.002 -0.002 0.012 0.000
19353 4 9.761 9.336 -0.525 0.009 0.004 -0.010 0.000
8368 4 11.208 -0.597 16.363 -0.009 -0.006 -0.009 -0.000
503 4 11.760 4.741 5.071 0.001 -0.001 -0.003 0.000
810 4 6.986 5.124 17.740 0.009 -0.007 0.009 -0.000
9804 4 10.719 -3.902 11.992 -0.007 -0.000 0.001 0.000
27123 4 -4.392 0.940 2.306 -0.007 0.010 -0.007 0.000
41 4 11.824 3.342 20.171 -0.006 -0.007 0.006 0.000
3271 4 3.484 2.099 2.722 0.000 0.000 0.004 -0.000
1240 4 11.201 12.234 3.903 -0.003 -0.015 -0.007 -0.000
6877 4 -0.633 11.471 13.737 0.013 -0.005 -0.001 0.000
1701 4 8.155 14.121 -1.428 0.003 -0.004 -0.000 -0.000
23835 4 -3.618 6.445 0.042 0.003 0.010 -0.006 0.000
847 4 6.973 11.542 1.429 0.003 0.008 0.005 -0.000
18481 4 3.626 -0.578 6.642 0.003 0.000 0.003 -0.000
1727 4 12.122 12.048 17.549 0.004 0.003 0.007 0.000
2842 4 11.170 3.267 17.088 0.012 -0.007 0.003 -0.000
406 4 11.121 11.246 1.054 0.011 -0.011 0.003 -0.000
10305 4 13.474 -2.444 -2.621 -0.004 0.001 0.004 -0.000
9486 4 0.405 11.430 8.187 -0.007 -0.003 -0.013 -0.000
2435 4 12.254 4.429 12.821 0.002 -0.003 0.003 -0.000
3003 4 3.654 -0.817 14.355 0.001 -0.009 0.006 -0.000
27130 4 4.797 1.696 5.348 0.007 0.009 -0.003 -0.000
19771 4 13.798 -0.321 1.882 0.002 -0.007 -0.007 0.000
19737 4 4.273 12.164 0.982 0.004 0.006 -0.007 -0.000
5000 4 5.599 9.617 1.054 -0.002 0.019 0.001 0.000
19230 4 14.647 3.667 0.299 0.012 0.009 -0.012 0.000
5838 4 14.224 7.951 11.987 0.006 -0.005 0.004 -0.000
11139 4 11.519 -0.766 12.827 -0.015 -0.006 -0.001 -0.000
1406 4 5.645 -3.173 18.137 0.010 -0.014 0.004 -0.000
17820 4 7.735 6.328 -1.717 0.009 -0.005 -0.009 0.000
13075 4 2.572 4.920 -2.458 0.003 -0.006 0.005 -0.000
14716 4 6.945 -0.908 3.932 -0.004 -0.007 -0.003 0.000
214 4 -0.720 0.847 6.277 0.000 0.000 0.002 0.000
12712 4 -4.936 3.826 0.399 -0.016 0.000 -0.006 0.000
1369 4 12.299 5.246 18.178 0.009 -0.004 -0.002 -0.000
8698 4 2.671 2.258 16.909 0.002 0.000 -0.006 -0.000
2052 4 11.335 10.421 -2.709 -0.003 -0.001 -0.008 0.000
4353 4 6.131 7.425 -3.669 -0.013 -0.006 -0.002 0.000
1708 4 12.803 10.316 -0.369 -0.005 -0.011 -0.008 0.000
7415 4 1.960 10.047 17.589 0.021 -0.004 0.011 0.000
458 4 12.129 3.581 1.078 0.005 0.008 0.002 -0.000
2251 4 -1.865 11.399 16.400 0.001 -0.006 0.001 0.000
2909 4 12.474 -1.753 18.005 -0.008 -0.001 0.003 0.000
4068 4 -1.229 11.575 2.722 0.009 -0.007 -0.001 -0.000
9921 4 -0.951 7.728 -1.975 -0.001 0.010 -0.005 0.000
1285 4 -0.934 10.137 -1.588 -0.001 0.003 0.002 0.000
2462 4 1.982 3.791 14.515 -0.004 0.004 -0.008 0.000
10657 4 5.369 8.434 13.638 -0.014 0.001 0.007 0.000
6139 4 3.052 1.702 19.308 -0.001 -0.005 0.002 0.000
3286 4 0.524 6.964 18.853 0.006 -0.002 0.007 -0.000
11168 4 -3.602 3.347 9.481 -0.012 -0.004 0.003 0.000
3134 4 -1.485 2.460 17.349 -0.009 -0.012 0.001 -0.000
1692 4 -0.735 3.141 -0.096 0.011 -0.001 -0.005 -0.000
22878 4 -1.516 5.641 0.281 -0.016 -0.004 -0.011 0.000
13596 4 2.054 -2.860 14.906 0.004 0.000 0.002 0.000
3217 4 10.550 -0.325 5.816 -0.007 -0.006 -0.001 0.000
19887 4 5.667 3.692 3.253 0.002 0.001 -0.013 -0.000
6216 4 3.186 12.406 -4.170 -0.000 0.004 -0.007 0.000
4078 4 3.492 4.687 7.802 -0.016 -0.002 -0.009 -0.000
4552 4 7.626 11.771 7.576 -0.001 -0.007 -0.002 -0.000
18510 4 8.096 -1.021 -3.656 -0.013 -0.012 -0.005 0.000
2903 4 12.108 -1.642 3.354 -0.002 -0.011 0.007 -0.000
13997 4 -2.532 -1.257 10.009 -0.013 0.005 -0.001 -0.000
172 4 1.109 -1.432 -4.729 0.002 0.003 -0.008 0.000
13199 4 8.848 -0.342 -0.117 0.004 0.001 0.005 -0.000
4910 4 -2.531 5.480 -3.399 -0.005 -0.004 -0.008 0.000
10730 4 7.755 3.977 20.358 0.013 0.003 0.003 -0.000
13594 4 2.565 4.381 18.879 -0.002 0.010 -0.007 -0.000
19281 4 -0.331 2.214 -2.330 -0.001 0.003 0.005 0.000
5060 4 -2.420 12.358 11.984 -0.003 0.001 -0.006 -0.000
7837 4 9.882 12.005 18.985 -0.005 0.005 -0.006 -0.000
19682 4 13.304 0.303 -3.170 -0.003 -0.003 0.009 -0.000
1930 4 -3.897 7.414 3.953 -0.011 0.003 0.010 -0.000
2514 4 14.318 -2.161 8.668 0.004 -0.004 -0.013 0.000
20184 4 -0.247 9.912 5.949 -0.002 0.000 0.005 0.000
3010 4 3.714 6.076 -0.175 0.003 0.008 -0.001 0.000
5020 4 -1.081 1.009 9.962 -0.002 -0.002 -0.002 0.000
5350 4 13.123 0.122 15.088 -0.002 -0.002 -0.008 0.000
2832 4 9.588 1.363 19.746 0.006 0.008 0.005 0.000
3421 4 -1.216 12.630 5.550 -0.008 0.006 0.011 0.000
1651 4 -3.098 1.440 -0.743 -0.008 0.006 0.010 0.000
5357 4 -2.679 4.103 -1.133 -0.002 -0.006 0.003 0.000
1733 4 2.757 14.580 -2.397 -0.003 -0.003 0.000 0.000
18622 4 5.423 7.462 -0.987 0.011 -0.003 0.008 -0.000
6147 4 -2.931 4.800 13.391 0.010 -0.005 0.009 -0.000
6431 4 -1.094 -1.140 8.178 0.000 -0.008 -0.005 -0.000
5880 4 -3.013 12.855 18.309 -0.006 -0.002 0.007 0.000
2412 4 0.723 12.215 17.437 -0.012 -0.002 -0.010 -0.000
8374 4 1.199 2.131 0.478 0.004 0.004 0.009 0.000
8370 4 -3.421 5.543 2.292 -0.001 -0.002 0.000 -0.000
55 4 11.712 8.391 10.188 -0.002 0.008 -0.012 -0.000
9924 4 -2.466 7.166 -5.309 0.005 0.007 0.003 -0.000
2108 4 11.265 10.013 18.557 0.001 -0.002 -0.001 -0.000
3284 4 12.507 5.540 21.389 0.003 -0.004 -0.001 0.000
1693 4 13.904 0.242 12.567 -0.002 -0.012 0.000 0.000
4995 4 1.892 12.919 10.402 0.002 0.002 0.005 0.000
139 4 6.736 -1.971 -1.763 0.006 -0.002 -0.004 0.000
5739 4 0.851 12.961 12.727 0.002 0.008 -0.002 -0.000
19307 4 2.746 -3.285 6.035 -0.002 -0.005 -0.001 0.000
164 4 1.360 8.820 10.892 0.012 0.008 0.001 0.000
10350 4 14.633 4.687 9.033 0.003 0.001 -0.007 -0.000
19253 4 1.343 0.769 -2.885 0.003 0.003 -0.002 -0.000
1249 4 12.271 6.666 0.877 -0.000 0.002 -0.001 0.000
1386 4 0.023 4.874 -2.034 -0.004 -0.003 0.010 0.000
24233 4 5.952 -1.124 19.686 0.014 -0.003 -0.011 0.000
11146 4 9.602 10.657 16.187 0.000 0.002 -0.010 -0.000
613 4 -1.607 11.825 -3.361 -0.011 -0.006 0.008 0.000
1046 4 11.030 14.117 8.844 -0.009 -0.003 -0.002 -0.000
983 4 3.605 -1.303 19.389 0.013 -0.003 -0.007 -0.000
1331 4 7.273 2.544 17.631 0.005 -0.001 0.002 0.000
163 4 -0.930 1.443 1.909 -0.004 0.011 0.002 0.000
2208 4 -1.159 11.595 19.087 -0.009 -0.009 -0.001 -0.000
19459 4 -5.047 10.982 -3.127 0.004 -0.004 0.005 0.000
27247 4 -0.367 0.456 -0.477 -0.002 -0.000 -0.006 0.000
2066 4 13.588 7.071 19.500 -0.001 -0.003 0.004 -0.000
18583 4 13.328 14.055 2.796 -0.003 -0.002 -0.005 -0.000
22876 4 -1.790 -2.796 -4.089 0.003 -0.007 0.014 0.000
26705 4 13.188 8.213 3.231 -0.005 -0.000 -0.005 0.000
579 4 12.932 6.833 -3.177 -0.001 -0.002 -0.010 0.000
168 4 -0.244 10.266 0.931 -0.006 0.006 0.001 0.000
13194 4 7.100 12.780 10.109 -0.002 -0.002 0.007 0.000
892 4 0.175 11.190 10.883 0.007 0.001 -0.002 0.000
18822 4 9.831 3.661 -1.624 -0.007 -0.009 -0.005 -0.000
5852 4 2.682 10.413 9.404 0.002 0.004 0.005 0.000
19096 4 -4.220 7.236 -3.369 0.009 -0.003 -0.002 -0.000
20478 4 -4.062 0.622 9.472 0.003 0.002 0.009 -0.000
841 4 0.907 14.370 7.738 -0.005 0.003 0.008 -0.000
18084 4 5.319 -0.536 -2.570 -0.001 -0.002 -0.006 -0.000
7159 4 8.634 13.327 2.226 -0.007 0.005 0.006 0.000
18003 4 3.887 -2.813 8.103 -0.010 -0.007 0.000 0.000
2063 4 13.865 -3.092 19.183 0.006 0.006 0.001 -0.000
1807 4 -5.415 5.251 3.512 -0.002 -0.006 -0.001 0.000
19488 4 -0.878 8.261 0.315 -0.007 -0.009 0.015 -0.000
3568 4 14.669 14.319 16.028 0.007 -0.005 -0.004 -0.000
22510 4 2.224 -0.791 -0.686 -0.002 0.001 0.014 -0.000
19785 4 -2.632 -0.744 2.402 0.009 0.009 0.006 0.000
9933 4 -2.867 8.622 5.946 0.005 -0.001 -0.001 -0.000
6583 4 2.920 1.621 14.292 0.001 0.001 -0.011 0.000
5920 4 -2.389 9.682 11.618 -0.008 0.007 -0.002 0.000
1646 4 11.855 -3.542 8.261 0.010 0.001 0.001 -0.000
7239 4 11.070 12.635 12.110 0.002 0.006 -0.006 -0.000
7320 4 3.671 -2.161 16.786 -0.002 0.003 -0.004 0.000
31992 4 -2.879 -3.029 0.826 0.001 0.000 0.004 0.000
2526 4 0.041 13.175 15.458 -0.004 -0.011 -0.006 -0.000
9552 4 10.997 7.638 -4.289 -0.009 -0.010 0.013 0.000
27940 4 -0.299 -2.368 3.489 -0.000 -0.004 -0.002 0.000
1721 4 -3.085 0.837 4.410 0.009 -0.007 -0.002 -0.000
22599 4 -4.876 10.375 0.295 0.004 -0.007 0.003 0.000
13180 4 -1.741 5.429 9.041 -0.008 -0.011 -0.000 -0.000
5752 4 -0.144 0.509 -5.388 0.010 0.008 0.004 0.000
13143 4 -1.284 0.280 14.936 0.005 0.011 -0.006 0.000
730 4 3.312 13.321 12.742 0.006 -0.002 0.005 0.000
31994 4 0.049 -1.465 -2.445 -0.010 0.013 0.007 0.000
14389 4 10.634 -3.600 15.626 0.000 0.004 -0.002 0.000
5516 4 -3.443 9.664 3.213 0.004 0.002 0.006 0.000
2339 4 6.180 10.217 -3.220 0.002 -0.000 -0.001 -0.000
18018 4 14.684 6.637 1.632 0.002 -0.009 0.006 0.000
7666 4 0.140 -0.963 17.240 0.006 0.007 0.004 0.000
19738 4 8.405 13.551 -3.740 -0.002 -0.001 0.000 -0.000
6525 4 13.874 10.377 10.716 0.007 -0.000 -0.018 0.000
1735 4 11.522 -0.592 -0.783 -0.004 0.007 0.006 0.000
6063 4 -2.927 2.998 1.548 -0.001 0.002 0.007 -0.000
16764 4 -4.483 11.497 13.203 -0.001 -0.009 0.003 0.000
1723 4 2.991 13.576 20.092 0.007 0.005 -0.006 0.000
4839 4 0.777 2.006 18.128 0.011 -0.004 -0.003 0.000
982 4 13.018 12.285 -2.058 0.000 -0.010 -0.007 -0.000
19403 4 9.606 11.606 -4.522 -0.001 -0.019 -0.009 -0.000
2928 4 13.020 12.910 13.834 0.004 -0.004 0.009 -0.000
8324 4 -0.617 -2.037 0.238 0.003 0.006 0.008 0.000
161 4 -3.676 0.337 6.734 0.003 -0.001 0.001 0.000
897 4 -3.476 2.971 3.957 -0.004 0.001 -0.001 0.000
1050 4 2.807 14.170 -0.224 0.000 0.007 0.005 -0.000
1829 4 8.864 11.941 0.081 -0.005 -0.002 -0.015 -0.000
1655 4 1.457 -2.059 8.018 -0.002 0.006 -0.003 0.000
922 4 -3.209 -1.983 19.556 0.001 -0.003 0.004 -0.000
8791 4 7.062 1.485 -4.232 -0.006 -0.005 -0.005 0.000
2850 4 5.329 13.741 17.557 -0.001 0.012 0.000 0.000
19267 4 -1.081 12.834 -0.583 0.006 -0.003 -0.009 -0.000
27574 4 7.001 -1.201 1.406 0.001 -0.002 0.002 0.000
18447 4 8.352 9.426 -4.512 0.004 0.003 -0.008 0.000
8644 4 11.724 0.729 18.495 0.009 0.007 0.002 -0.000
1135 4 -3.625 9.060 -1.395 0.011 -0.008 0.002 0.000
208 4 11.241 4.868 -4.173 0.005 -0.002 -0.002 -0.000
19893 4 11.903 11.976 -4.892 0.007 -0.004 -0.004 -0.000
488 4 -2.734 10.233 0.948 0.006 -0.009 0.001 -0.000
14351 4 -3.520 2.741 14.639 0.000 0.004 -0.009 -0.000
7513 4 -3.895 12.655 4.351 -0.007 0.006 -0.001 -0.000
8769 4 -3.301 7.551 9.318 0.009 -0.010 0.006 -0.000
2964 4 -2.656 12.712 14.674 -0.009 0.009 -0.014 -0.000
27333 4 4.841 -3.242 -3.434 -0.001 0.002 -0.006 -0.000
3264 4 14.436 11.437 15.533 -0.010 0.000 0.009 0.000
11454 4 -4.944 6.670 12.025 0.003 -0.002 -0.008 -0.000
4232 4 5.771 13.009 -3.082 -0.008 -0.000 0.010 -0.000
4198 4 -4.446 5.059 8.396 -0.005 0.004 0.006 0.000
19292 4 -2.773 14.520 -2.751 -0.004 -0.002 -0.011 0.000
12797 4 -2.959 -3.252 6.909 0.004 -0.001 -0.006 -0.000
2079 4 14.648 -2.174 3.582 0.006 -0.004 -0.010 -0.000
7384 4 -0.762 8.036 9.675 -0.002 -0.007 -0.002 -0.000
10245 4 12.814 -1.244 20.390 0.001 0.005 0.001 0.000
223 4 8.741 13.818 8.521 -0.007 0.004 -0.004 0.000
5951 4 -0.734 13.572 10.425 -0.005 0.001 0.001 0.000
602 4 7.180 14.951 1.021 0.004 0.003 0.005 -0.000
2092 4 11.623 14.026 16.017 0.010 0.002 -0.004 -0.000
7034 4 -4.483 8.272 1.462 0.005 0.004 -0.014 -0.000
27578 4 12.189 4.821 -1.551 -0.000 0.006 -0.001 -0.000
2535 4 12.992 -3.348 12.989 -0.015 -0.000 -0.007 0.000
270 4 11.055 9.845 -5.373 0.000 -0.003 0.004 0.000
22875 4 5.667 -2.408 5.992 -0.004 -0.001 -0.006 0.000
485 4 12.723 12.998 0.022 -0.004 -0.008 0.007 0.000
4955 4 2.415 13.894 16.802 0.000 -0.001 -0.001 0.000
10332 4 13.188 3.790 -3.646 0.011 0.006 0.008 -0.000
5025 4 -2.149 11.535 9.247 -0.001 0.003 0.014 0.000
13115 4 -2.383 -2.042 13.551 0.000 -0.001 -0.001 -0.000
2678 4 3.534 14.737 8.470 -0.002 -0.006 -0.007 -0.000
25166 4 5.373 13.215 -5.660 0.000 0.009 -0.004 -0.000
3616 4 -4.369 10.354 18.613 0.015 0.000 0.001 0.000
5839 4 -0.533 9.101 18.160 0.003 -0.014 -0.016 -0.000
3203 4 13.333 3.042 18.448 0.006 0.003 -0.014 0.000
14269 4 -2.281 6.589 11.097 0.001 -0.003 -0.005 0.000
1012 4 4.910 -2.428 2.697 -0.008 -0.007 0.002 0.000
9535 4 -0.375 9.421 -3.759 0.004 -0.003 0.007 -0.000
1765 4 14.055 8.514 14.707 -0.010 0.001 -0.010 0.000
9568 4 6.957 -2.218 8.293 -0.009 0.006 0.001 -0.000
20152 4 1.324 3.351 20.704 0.010 -0.001 0.008 0.000
20197 4 -0.198 -3.350 19.547 -0.001 0.005 -0.005 0.000
2201 4 -4.203 3.014 17.577 -0.017 0.008 -0.002 0.000
13111 4 8.231 -3.135 10.340 -0.009 -0.012 -0.001 0.000
25977 4 -4.086 -2.285 3.524 0.008 0.006 0.006 0.000
10769 4 14.877 2.261 -2.032 0.007 0.005 0.007 0.000
20585 4 -3.534 3.408 21.552 -0.005 -0.009 0.006 -0.000
492 4 1.115 11.785 -2.480 0.016 0.000 -0.006 -0.000
42 4 -4.104 12.399 20.506 0.006 0.001 0.004 -0.000
1689 4 12.174 -2.628 10.363 0.001 -0.000 0.002 0.000
1944 4 10.870 13.217 -2.828 -0.013 0.006 -0.002 0.000
13479 4 -4.256 -1.584 -3.649 0.003 0.008 -0.011 -0.000
2449 4 -2.511 4.818 16.024 -0.001 0.004 -0.002 -0.000
9131 4 12.882 -2.502 15.703 -0.012 -0.000 0.007 -0.000
206 4 8.128 14.657 13.709 -0.000 -0.009 -0.005 0.000
9058 4 -4.459 0.993 -3.001 -0.001 -0.004 0.005 -0.000
11552 4 13.882 12.441 11.813 0.002 0.003 -0.005 -0.000
6876 4 -3.931 14.411 13.650 -0.004 -0.005 -0.004 0.000
2209 4 13.671 12.405 20.941 0.007 0.004 0.011 -0.000
19007 4 13.339 9.100 -5.057 -0.004 0.001 -0.003 -0.000
3202 4 0.626 13.461 19.671 -0.002 -0.002 -0.002 -0.000
1871 4 9.435 14.013 17.703 0.007 0.006 -0.001 0.000
7272 4 6.624 13.089 14.860 0.003 0.003 -0.004 0.000
6071 4 0.893 -1.074 19.848 0.000 0.000 -0.007 0.000
5077 4 -2.894 14.798 5.918 -0.013 -0.006 0.009 -0.000
2860 4 0.592 11.340 -4.968 -0.006 0.002 -0.002 0.000
8809 4 -4.753 13.996 -1.363 -0.000 -0.006 -0.001 0.000
7305 4 -4.498 2.696 12.167 0.007 -0.004 -0.007 0.000
785 4 -2.748 9.363 -3.732 -0.010 -0.007 -0.001 -0.000
1179 4 1.971 9.181 -5.741 -0.008 -0.008 -0.002 -0.000
19724 4 4.107 3.029 -3.219 -0.007 -0.008 -0.002 0.000
1380 4 -3.674 0.490 -5.379 -0.007 0.006 0.003 0.000
8695 4 10.121 -2.619 1.735 -0.008 0.011 -0.003 0.000
20563 4 14.231 10.102 19.207 -0.003 0.004 -0.009 -0.000
1062 4 -5.020 11.241 2.487 0.000 0.012 -0.012 -0.000
2265 4 14.732 6.032 7.045 0.013 0.012 -0.003 -0.000
162 4 -1.048 14.158 -5.067 -0.003 -0.003 0.000 -0.000
1295 4 13.283 -2.256 0.065 -0.002 -0.000 0.003 -0.000
9583 4 12.879 10.635 2.812 0.004 0.007 -0.002 0.000
2643 4 14.896 8.760 6.801 -0.000 0.004 0.006 -0.000
2243 4 11.218 13.114 21.237 0.012 0.001 0.000 0.000
3425 4 11.948 13.843 5.940 -0.009 0.009 -0.002 -0.000
528 4 13.272 12.566 9.652 0.000 -0.001 0.007 0.000
5464 4 -1.856 14.486 16.520 0.004 -0.002 -0.013 0.000
6994 4 1.062 11.001 19.558 -0.017 0.003 -0.002 -0.000
4829 4 0.157 14.392 -2.496 -0.000 -0.005 -0.001 0.000
1863 4 14.485 14.566 0.670 -0.001 -0.004 0.002 0.000
4557 4 4.794 15.073 5.979 -0.006 0.000 -0.006 -0.000
5393 4 12.148 2.447 -5.752 -0.000 -0.004 0.003 0.000
8681 4 -4.928 -1.758 -1.146 -0.004 0.003 0.008 0.000
3613 4 4.718 -3.350 20.942 -0.000 0.003 -0.007 -0.000
410 4 8.218 -3.458 -4.381 0.016 -0.004 -0.000 0.000
3820 4 7.262 14.944 11.368 0.012 0.008 0.009 -0.000
14188 4 -0.719 14.405 13.909 -0.005 0.001 0.005 -0.000
19697 4 8.052 6.442 -4.637 0.002 -0.005 -0.005 -0.000
20240 4 -5.201 7.296 17.039 -0.003 -0.003 -0.003 0.000
5627 4 -3.609 0.221 14.480 -0.004 -0.001 -0.003 -0.000
14346 4 -3.266 -3.598 16.905 0.007 0.002 -0.006 -0.000
1296 4 11.366 -3.525 20.000 -0.006 0.004 0.002 0.000
641 4 -5.034 4.403 5.819 0.004 0.002 -0.001 -0.000
3006 4 7.403 14.450 18.678 0.006 0.003 0.007 -0.000
5285 4 9.620 15.145 6.871 0.004 0.007 0.008 0.000
22430 4 -2.380 -2.563 -2.037 -0.002 0.005 0.007 0.000
31200 4 -0.483 -3.243 9.373 0.010 -0.015 0.006 0.000
6539 4 4.497 10.038 20.788 -0.008 0.001 0.011 -0.000
19264 4 3.159 7.068 -4.444 -0.007 -0.006 0.007 0.000
427 4 13.937 3.182 10.976 0.005 0.006 0.010 0.000
6638 4 -4.831 9.377 10.746 0.004 -0.014 0.004 0.000
3243 4 -5.026 0.003 12.087 -0.002 0.008 -0.003 -0.000
6034 4 -5.306 2.207 19.613 -0.004 -0.004 0.004 0.000
19617 4 2.536 -3.786 -4.628 0.007 0.005 -0.005 0.000
655 4 14.327 11.917 4.142 -0.002 -0.006 0.008 -0.000
5392 4 -3.446 12.648 0.778 0.002 -0.001 -0.007 0.000