ITEM: TIMESTEP
7000
ITEM: NUMBER OF ATOMS
32000
ITEM: BOX BOUNDS pp pp pp
-5.043917 75.523917
-4.992774 75.472774
-5.318766 75.798766
ITEM: ATOMS id type x y z vx vy vz q
10 4 3.311 -2.752 -0.915 -0.006 -0.006 0.006 0.000
18 4 11.262 -3.505 2.829 0.008 -0.001 -0.001 -0.000
58 4 12.114 -0.116 -4.504 0.000 -0.001 0.003 -0.000
87 4 -0.455 4.984 -2.624 0.006 -0.005 -0.004 -0.000
90 4 -0.187 6.415 1.770 0.004 -0.006 -0.005 0.000
91 4 9.682 7.796 -0.816 0.003 -0.001 -0.001 0.000
98 4 8.109 2.720 -2.800 0.008 0.002 0.008 -0.000
99 4 10.909 3.303 -2.331 -0.002 0.002 -0.008 0.000
123 4 -0.972 9.528 1.595 -0.004 -0.005 -0.004 -0.000
126 4 -0.365 11.700 1.934 0.001 0.002 -0.001 0.000
131 4 6.429 6.299 -2.603 0.001 -0.004 0.002 -0.000
138 4 12.204 11.735 1.766 0.004 -0.001 -0.002 0.000
139 4 12.181 8.111 -2.275 -0.004 0.001 0.006 0.000
171 4 1.214 13.558 -0.124 0.003 0.007 -0.005 0.000
174 4 3.996 11.003 4.097 -0.002 -0.010 -0.006 -0.000
178 4 13.280 13.335 0.133 -0.000 0.001 0.008 -0.000
179 4 11.896 9.949 -0.220 -0.004 -0.002 -0.004 -0.000
406 4 3.067 0.657 -0.462 0.002 -0.003 0.004 0.000
418 4 9.922 -1.685 -4.468 -0.001 -0.004 -0.007 0.000
420 4 13.000 -2.186 -2.488 0.004 0.003 0.010 -0.000
445 4 -1.391 -1.158 -1.042 -0.008 -0.002 -0.015 -0.000
447 4 1.731 1.137 -3.344 0.004 -0.011 0.002 0.000
448 4 -3.877 0.673 -1.541 -0.005 0.001 0.005 -0.000
449 4 -1.628 -1.212 1.776 0.003 0.009 0.005 -0.000
450 4 4.556 -3.239 3.563 0.006 0.008 -0.002 0.000
452 4 5.035 1.833 -1.392 -0.000 -0.009 -0.012 -0.000
454 4 5.603 -1.091 -0.865 0.002 -0.003 0.003 -0.000
455 4 12.163 2.602 0.302 0.001 0.005 -0.006 0.000
456 4 7.493 -3.212 -0.784 0.002 0.007 -0.010 0.000
457 4 9.719 0.783 -3.698 -0.000 -0.000 -0.005 0.000
458 4 11.788 -0.605 -0.150 0.002 -0.012 0.005 0.000
460 4 9.565 0.971 -1.265 0.000 0.002 0.006 -0.000
485 4 -4.029 5.219 -2.195 -0.006 -0.000 -0.001 0.000
486 4 2.444 6.683 1.215 0.003 -0.003 -0.004 0.000
487 4 1.551 6.758 3.611 0.013 -0.002 -0.003 0.000
488 4 -1.560 11.116 -0.551 -0.004 -0.002 0.008 0.000
490 4 2.674 7.725 -1.250 0.004 -0.006 -0.009 0.000
491 4 8.051 -0.998 -2.707 0.006 0.002 -0.016 -0.000
492 4 2.013 6.302 -3.018 0.004 0.007 0.011 0.000
494 4 6.678 2.385 3.402 0.001 -0.006 0.003 0.000
495 4 3.172 3.819 -0.272 -0.000 0.000 0.002 -0.000
496 4 8.971 -1.033 0.201 -0.013 -0.016 0.002 -0.000
497 4 10.418 -1.371 -2.042 0.002 0.000 0.003 -0.000
498 4 8.864 2.469 1.279 0.001 -0.009 0.005 0.000
500 4 9.805 9.144 1.301 -0.004 -0.000 -0.007 0.000
525 4 -1.937 6.377 -0.330 0.001 -0.004 -0.005 -0.000
527 4 1.072 8.574 1.246 0.003 -0.002 -0.006 0.000
528 4 -0.474 8.722 -1.181 -0.005 0.006 0.005 -0.000
529 4 1.274 10.585 -0.405 0.002 0.003 0.007 0.000
530 4 2.252 11.504 2.452 0.008 0.007 0.001 -0.000
531 4 4.170 9.870 -0.439 -0.001 0.009 0.005 0.000
532 4 4.436 6.115 -0.793 0.003 -0.008 -0.006 0.000
533 4 8.434 5.301 -4.041 -0.006 -0.002 -0.005 0.000
534 4 6.940 6.230 -0.001 0.002 0.000 0.002 0.000
535 4 11.705 4.586 2.268 -0.004 -0.004 -0.011 0.000
536 4 6.321 4.356 -1.887 -0.002 -0.008 -0.005 0.000
538 4 13.123 13.913 3.250 0.007 0.003 0.008 0.000
539 4 9.577 7.214 5.785 0.004 -0.001 -0.004 -0.000
563 4 5.068 10.657 1.358 -0.008 0.013 -0.004 -0.000
565 4 -3.777 13.602 1.191 -0.003 -0.003 0.002 0.000
566 4 -1.221 13.576 0.516 -0.004 0.003 -0.013 -0.000
567 4 0.794 12.385 4.341 -0.001 0.007 0.006 0.000
571 4 5.801 3.254 0.106 0.003 -0.003 0.002 -0.000
572 4 3.609 13.112 1.180 0.000 0.001 0.008 -0.000
573 4 7.368 8.478 1.190 0.002 -0.012 0.002 0.000
574 4 9.039 11.643 1.435 -0.012 -0.011 -0.006 0.000
575 4 5.173 5.891 -5.089 0.002 0.003 0.005 0.000
576 4 6.482 8.513 -3.766 0.005 0.004 0.006 -0.000
804 4 -2.477 3.135 -1.464 -0.002 -0.001 0.005 0.000
810 4 2.133 4.443 2.828 -0.002 0.006 0.000 0.000
816 4 5.309 -3.958 0.951 -0.004 -0.008 0.017 0.000
846 4 -4.797 3.955 2.468 -0.001 0.012 0.005 0.000
847 4 2.301 -3.404 3.779 -0.005 0.004 0.006 0.000
850 4 2.465 1.891 1.792 -0.003 0.007 -0.007 -0.000
852 4 6.385 0.705 -3.082 0.003 0.009 0.001 0.000
854 4 3.541 6.484 6.372 -0.001 -0.012 -0.009 0.000
855 4 9.315 0.086 4.385 0.000 0.002 0.001 0.000
858 4 13.332 -2.073 1.711 -0.002 0.006 -0.009 -0.000
860 4 13.586 0.576 1.087 -0.003 0.001 -0.009 0.000
883 4 0.164 3.346 1.543 -0.007 0.003 0.008 -0.000
885 4 -2.582 7.519 2.068 -0.003 0.005 0.002 0.000
887 4 -2.691 3.931 1.013 0.002 -0.005 0.001 0.000
889 4 -1.124 7.751 3.805 0.009 0.007 0.005 -0.000
890 4 1.518 4.752 5.503 -0.010 0.008 -0.001 -0.000
891 4 3.998 0.243 2.740 -0.008 -0.009 0.001 -0.000
892 4 4.700 4.845 1.407 -0.007 0.002 -0.004 0.000
893 4 0.959 5.592 -0.582 -0.012 -0.001 0.006 0.000
894 4 7.245 0.358 1.533 0.012 0.003 0.003 -0.000
895 4 7.481 1.392 -0.434 -0.001 0.005 -0.001 -0.000
896 4 7.575 1.230 5.930 -0.011 -0.020 -0.004 0.000
897 4 9.677 2.369 3.864 0.003 0.004 0.004 0.000
898 4 12.185 7.427 0.810 0.007 -0.011 -0.010 0.000
899 4 9.761 1.572 6.460 -0.006 0.001 -0.004 0.000
900 4 12.086 6.969 5.611 -0.002 0.002 -0.007 -0.000
923 4 -3.311 9.455 6.945 -0.001 -0.004 0.004 -0.000
924 4 -2.916 11.559 2.055 -0.010 -0.008 0.009 -0.000
926 4 -2.296 7.512 7.525 -0.007 -0.005 0.006 -0.000
927 4 -0.353 5.210 7.510 -0.000 0.001 -0.007 0.000
928 4 3.178 9.172 2.702 -0.008 0.005 -0.002 0.000
929 4 -2.655 5.242 3.244 -0.007 -0.011 -0.004 0.000
930 4 4.243 9.522 8.081 0.010 -0.001 0.010 0.000
931 4 8.742 3.841 -1.050 -0.009 0.003 -0.001 0.000
932 4 4.767 7.919 1.155 0.006 0.003 0.007 0.000
933 4 8.731 4.748 2.251 0.002 -0.002 0.006 0.000
934 4 8.687 15.028 4.719 0.001 0.002 -0.003 0.000
935 4 6.502 3.553 5.653 -0.008 -0.004 0.004 -0.000
938 4 10.697 9.137 4.634 0.001 0.008 0.002 -0.000
939 4 11.148 7.478 8.011 -0.007 -0.006 -0.003 0.000
965 4 -1.491 6.220 5.385 -0.006 0.006 -0.002 -0.000
967 4 1.763 9.827 7.165 0.010 -0.009 -0.003 -0.000
968 4 4.658 14.898 2.469 -0.004 -0.003 -0.004 -0.000
969 4 4.016 9.056 5.690 0.003 0.003 0.002 0.000
971 4 5.008 10.677 10.983 0.000 0.015 0.004 0.000
972 4 5.973 8.765 3.817 0.006 0.005 -0.007 0.000
974 4 7.411 10.244 7.963 -0.006 -0.003 0.002 0.000
975 4 12.392 9.366 6.829 -0.011 -0.004 -0.002 0.000
976 4 8.007 10.284 3.735 -0.008 -0.004 0.004 0.000
977 4 12.312 9.642 2.778 0.009 0.005 0.004 -0.000
978 4 12.577 11.629 4.343 0.004 -0.008 -0.000 -0.000
979 4 10.049 12.634 3.667 0.000 -0.005 0.006 0.000
1206 4 7.388 -2.224 4.794 -0.001 0.003 -0.003 0.000
1208 4 6.236 -2.690 7.602 0.003 0.005 -0.004 0.000
1210 4 0.650 1.307 10.056 -0.001 0.001 -0.008 0.000
1212 4 9.172 -2.730 11.606 0.005 0.006 0.000 -0.000
1216 4 6.637 3.750 8.956 0.007 0.005 0.001 -0.000
1218 4 8.157 0.302 8.725 -0.004 0.000 -0.009 0.000
1244 4 1.958 0.002 6.233 -0.003 0.001 0.004 -0.000
1245 4 2.460 -0.768 8.507 0.011 0.003 -0.003 0.000
1246 4 -3.146 3.802 11.186 -0.010 0.008 -0.008 -0.000
1247 4 5.819 -0.594 6.725 0.005 0.010 -0.008 0.000
1248 4 0.554 2.340 4.921 -0.000 -0.000 -0.007 -0.000
1249 4 9.830 -2.382 5.131 -0.006 0.002 0.012 -0.000
1250 4 7.207 2.066 10.627 -0.005 0.001 0.000 0.000
1251 4 7.390 -2.194 9.884 -0.008 -0.004 0.014 0.000
1252 4 5.901 -1.817 2.165 -0.002 -0.000 0.004 -0.000
1254 4 9.305 4.403 9.690 -0.009 -0.007 0.003 -0.000
1255 4 8.399 -0.769 6.223 0.006 0.003 0.001 0.000
1256 4 11.123 0.546 2.032 -0.002 -0.005 0.007 0.000
1257 4 11.147 2.915 8.195 -0.006 -0.004 -0.002 0.000
1258 4 8.588 3.410 7.740 0.006 -0.008 -0.003 -0.000
1260 4 10.731 -0.750 6.258 0.004 0.000 -0.001 0.000
1283 4 -3.600 5.271 7.057 0.004 0.007 -0.002 0.000
1285 4 2.940 1.488 8.109 0.007 0.005 0.013 0.000
1286 4 -1.971 5.844 9.770 -0.001 0.004 -0.000 -0.000
1287 4 -3.691 1.581 12.896 -0.004 -0.004 0.006 0.000
1288 4 -1.034 10.590 12.031 0.002 0.008 0.000 0.000
1289 4 5.432 -0.357 9.421 0.004 -0.001 -0.015 0.000
1290 4 -1.189 2.635 6.706 0.004 0.002 -0.008 -0.000
1291 4 4.206 5.027 8.931 -0.000 0.010 -0.009 -0.000
1292 4 -1.008 1.818 12.320 0.005 -0.000 -0.001 0.000
1293 4 -3.103 3.607 4.940 0.013 -0.005 -0.002 0.000
1294 4 -2.134 10.182 9.639 0.002 0.004 0.002 0.000
1295 4 7.773 -4.395 3.068 0.002 0.011 -0.001 -0.000
1296 4 3.159 1.859 5.030 0.010 -0.012 0.002 -0.000
1297 4 10.263 5.117 7.399 0.003 0.006 -0.002 -0.000
1298 4 9.820 6.914 10.356 -0.005 -0.001 0.003 0.000
1300 4 13.535 7.357 8.474 -0.002 -0.004 -0.004 0.000
1324 4 1.334 7.750 5.824 -0.014 -0.004 0.007 -0.000
1325 4 -0.585 9.303 5.981 0.002 -0.005 -0.013 -0.000
1327 4 1.328 11.494 11.602 0.002 0.011 -0.001 0.000
1328 4 -1.188 11.885 4.957 -0.006 -0.013 0.003 -0.000
1329 4 4.295 6.797 3.894 0.001 -0.005 0.006 0.000
1330 4 0.122 8.230 8.081 -0.002 -0.006 -0.011 0.000
1331 4 6.428 5.721 3.111 0.016 -0.002 0.004 0.000
1332 4 3.322 13.147 3.842 -0.002 -0.005 -0.000 0.000
1333 4 6.520 -0.027 3.693 -0.009 0.008 -0.005 -0.000
1334 4 3.402 9.363 12.249 0.004 0.010 -0.008 -0.000
1335 4 4.469 3.857 6.665 -0.006 0.007 -0.002 -0.000
1336 4 4.263 4.190 4.198 -0.014 0.004 0.010 0.000
1337 4 6.207 1.750 8.003 -0.002 -0.010 0.004 -0.000
1338 4 7.599 5.908 7.521 -0.008 0.002 0.006 -0.000
1365 4 0.854 9.880 3.657 0.007 -0.004 0.004 -0.000
1367 4 -2.190 9.866 14.093 0.003 -0.001 0.002 0.000
1369 4 -3.091 11.856 12.908 -0.008 0.001 -0.007 -0.000
1370 4 -1.183 12.763 11.282 0.002 -0.008 0.009 0.000
1371 4 6.412 6.181 5.424 0.001 -0.009 -0.003 0.000
1373 4 8.725 7.547 3.405 -0.003 0.008 0.003 0.000
1374 4 9.577 12.517 10.808 -0.008 -0.004 0.004 -0.000
1375 4 8.576 8.298 8.641 0.002 -0.001 0.005 -0.000
1377 4 9.961 9.422 6.759 -0.001 0.002 0.013 0.000
1606 4 -3.720 0.953 6.899 -0.003 0.001 -0.004 0.000
1608 4 -4.027 -3.225 9.692 0.009 0.005 0.009 -0.000
1610 4 3.650 -0.008 13.578 -0.005 0.012 -0.003 -0.000
1612 4 8.231 0.192 11.303 -0.010 -0.005 -0.009 0.000
1614 4 7.912 -1.137 13.725 -0.001 -0.010 -0.008 -0.000
1618 4 9.660 -2.052 8.486 0.004 0.006 -0.005 0.000
1620 4 12.628 -2.653 11.027 -0.005 -0.004 -0.002 -0.000
1643 4 1.271 1.087 17.107 0.007 0.001 0.012 -0.000
1644 4 1.297 -0.730 11.354 0.006 -0.001 0.009 0.000
1645 4 3.595 -3.113 15.908 -0.003 0.007 -0.001 -0.000
1646 4 -1.382 0.788 15.051 0.003 0.003 0.007 0.000
1647 4 -0.068 -3.763 13.718 0.007 -0.008 -0.005 0.000
1648 4 0.477 2.052 15.250 -0.008 -0.000 0.005 -0.000
1649 4 6.518 -3.799 11.260 0.000 -0.014 0.004 -0.000
1650 4 5.895 0.225 14.410 -0.012 0.009 0.004 -0.000
1651 4 5.954 -1.190 11.844 -0.002 -0.001 0.005 -0.000
1652 4 5.071 3.763 11.128 0.000 -0.007 0.004 -0.000
1654 4 10.505 0.300 12.901 -0.003 -0.001 0.002 0.000
1655 4 10.796 -0.844 10.233 0.002 -0.013 -0.007 0.000
1656 4 7.395 4.651 11.831 -0.001 0.002 0.004 0.000
1657 4 12.044 0.381 8.461 0.000 0.005 0.008 0.000
1658 4 13.390 2.937 8.934 -0.014 0.000 0.004 0.000
1683 4 -2.144 6.286 14.079 -0.002 0.008 0.002 -0.000
1685 4 0.351 -2.274 9.423 -0.010 -0.001 0.008 -0.000
1686 4 -3.290 2.308 16.099 -0.003 -0.006 0.001 0.000
1687 4 -2.710 -1.414 10.931 -0.005 -0.001 0.000 0.000
1688 4 -0.759 3.491 9.374 0.003 -0.009 0.012 0.000
1689 4 0.921 3.693 11.939 0.004 0.002 -0.006 -0.000
1690 4 3.721 9.176 14.830 0.009 0.010 -0.010 -0.000
1691 4 3.217 2.332 10.561 0.005 -0.016 -0.007 -0.000
1692 4 3.248 7.219 10.939 -0.000 -0.011 -0.013 0.000
1693 4 -1.257 4.822 12.379 0.011 0.009 -0.010 0.000
1694 4 10.906 2.499 10.719 0.002 0.000 -0.005 0.000
1695 4 13.635 6.018 11.760 0.007 0.000 -0.001 0.000
1696 4 6.196 9.718 12.803 -0.009 0.001 -0.002 0.000
1697 4 11.934 5.622 9.569 0.008 -0.006 -0.005 -0.000
1699 4 12.731 4.945 7.366 -0.004 -0.005 -0.003 -0.000
1724 4 -0.054 11.922 9.418 0.005 0.006 0.001 0.000
1725 4 -4.758 10.681 11.443 -0.003 0.001 0.005 0.000
1727 4 -3.082 9.951 17.781 -0.002 -0.002 -0.006 -0.000
1728 4 1.467 8.995 11.274 -0.004 0.004 -0.008 0.000
1729 4 -1.311 3.154 14.344 0.011 -0.004 0.010 -0.000
1730 4 0.604 5.879 10.459 0.007 0.010 0.009 -0.000
1731 4 4.931 7.549 13.258 -0.003 0.013 -0.003 -0.000
1733 4 5.799 8.024 9.774 -0.003 -0.003 -0.001 0.000
1734 4 2.259 7.052 8.629 -0.003 0.004 0.012 -0.000
1735 4 8.440 5.154 14.197 -0.009 0.006 0.008 -0.000
1736 4 5.704 7.546 7.150 -0.010 0.004 -0.003 0.000
1737 4 11.738 7.659 10.831 0.006 -0.002 0.011 -0.000
1739 4 9.202 7.063 12.647 -0.007 -0.001 -0.001 -0.000
1740 4 13.672 11.139 11.511 -0.007 -0.008 0.000 -0.000
1763 4 -3.886 8.343 9.035 0.003 -0.008 0.005 0.000
1765 4 -3.384 8.963 12.209 -0.006 -0.003 0.009 -0.000
1766 4 -0.957 10.649 16.400 -0.004 0.006 0.005 0.000
1767 4 -0.720 8.147 12.777 0.015 0.005 0.008 0.000
1769 4 -0.169 12.101 14.000 -0.009 0.000 0.004 0.000
1771 4 3.996 11.972 16.809 -0.008 0.000 -0.000 -0.000
1772 4 5.562 13.720 12.677 -0.002 0.010 0.002 -0.000
1773 4 11.153 9.433 9.342 -0.006 -0.007 0.001 0.000
1774 4 8.444 10.828 16.285 0.010 -0.003 0.007 -0.000
1775 4 8.216 12.185 14.080 -0.001 -0.015 0.004 -0.000
1776 4 8.585 11.667 5.975 -0.009 0.015 -0.007 0.000
1777 4 10.599 9.760 11.952 0.003 0.007 0.002 -0.000
1778 4 11.391 13.007 8.994 0.007 0.009 0.002 -0.000
1780 4 13.711 12.015 8.803 -0.001 -0.005 0.009 -0.000
2010 4 5.687 1.211 12.115 0.011 0.002 0.010 0.000
2012 4 7.839 0.654 16.873 -0.003 -0.005 -0.003 0.000
2014 4 12.689 -1.153 16.686 0.004 0.004 0.009 0.000
2016 4 12.241 -1.377 13.456 -0.007 0.010 0.003 -0.000
2018 4 11.893 1.216 18.402 -0.002 0.008 -0.010 0.000
2020 4 14.326 -0.209 9.559 0.006 -0.009 0.004 0.000
2045 4 2.011 1.758 12.837 -0.001 -0.000 0.001 -0.000
2046 4 -0.738 -0.305 18.148 0.004 0.002 0.003 0.000
2047 4 2.696 6.212 15.396 -0.001 -0.004 0.002 -0.000
2048 4 -2.075 8.201 15.966 -0.011 -0.006 0.004 -0.000
2049 4 0.279 -0.813 15.594 0.010 0.005 -0.003 0.000
2050 4 5.330 6.036 11.121 -0.008 -0.001 -0.002 -0.000
2051 4 5.545 0.167 16.875 -0.013 0.002 0.001 0.000
2052 4 5.254 5.012 14.349 0.003 -0.007 0.017 -0.000
2053 4 8.968 2.571 12.525 -0.003 0.001 0.003 0.000
2054 4 10.326 1.806 20.291 0.001 0.004 -0.012 -0.000
2055 4 11.909 1.162 15.081 -0.007 0.001 0.009 -0.000
2056 4 10.656 4.537 12.247 -0.003 0.018 0.005 0.000
2057 4 13.153 3.657 11.201 0.004 0.005 -0.003 0.000
2084 4 -1.264 8.298 10.210 -0.014 -0.009 0.006 0.000
2085 4 -3.004 0.858 17.775 0.002 0.011 0.000 0.000
2086 4 1.267 3.959 17.451 0.005 -0.008 -0.002 -0.000
2087 4 -1.152 3.010 18.179 0.004 -0.010 -0.001 -0.000
2088 4 0.524 5.568 13.936 -0.002 0.000 -0.005 -0.000
2089 4 2.425 4.779 10.321 0.004 -0.002 -0.000 0.000
2090 4 3.922 9.115 18.151 0.003 0.002 0.011 -0.000
2091 4 3.198 5.188 13.065 -0.006 0.015 -0.005 -0.000
2092 4 2.176 4.147 7.639 -0.001 0.001 -0.004 -0.000
2093 4 8.751 3.989 16.440 0.002 -0.007 -0.006 0.000
2094 4 12.588 2.905 13.564 -0.005 0.003 -0.002 -0.000
2095 4 12.402 3.578 18.025 0.008 0.004 0.007 -0.000
2097 4 14.838 2.644 12.857 0.004 0.006 0.004 -0.000
2123 4 -1.714 6.200 19.176 -0.002 -0.010 0.002 0.000
2125 4 3.472 1.542 16.085 -0.003 0.015 -0.010 -0.000
2126 4 -3.349 10.239 19.939 0.006 -0.005 -0.002 -0.000
2127 4 1.902 7.677 13.483 0.006 -0.003 0.012 -0.000
2128 4 1.477 10.093 19.473 -0.002 0.003 -0.001 0.000
2129 4 4.875 7.318 16.272 0.006 0.001 0.005 -0.000
2130 4 4.568 12.092 14.113 0.001 -0.008 -0.013 -0.000
2131 4 7.071 7.734 11.913 -0.007 0.003 0.003 -0.000
2132 4 7.119 12.104 11.799 0.002 0.002 -0.008 0.000
2133 4 8.592 9.036 14.308 0.011 0.001 0.006 -0.000
2134 4 6.290 9.699 15.118 -0.002 0.008 0.002 -0.000
2135 4 11.630 8.592 14.030 0.004 -0.003 -0.004 -0.000
2136 4 11.332 13.033 13.012 0.001 -0.000 -0.006 -0.000
2137 4 11.254 3.263 15.960 0.008 0.001 -0.010 -0.000
2138 4 12.851 10.838 13.593 -0.004 -0.005 0.003 -0.000
2164 4 -2.542 12.391 17.097 0.012 0.003 0.001 -0.000
2165 4 0.249 9.094 14.920 -0.011 0.005 0.004 0.000
2167 4 1.632 10.725 16.754 -0.001 0.010 0.007 0.000
2169 4 -1.185 11.675 18.947 0.002 0.012 -0.001 0.000
2170 4 5.331 13.812 18.886 -0.001 0.010 -0.007 -0.000
2171 4 3.784 14.891 18.136 -0.002 0.008 -0.004 0.000
2173 4 9.738 8.821 16.652 0.005 -0.004 -0.005 -0.000
2176 4 7.529 13.710 18.136 -0.012 0.007 0.013 -0.000
2177 4 13.773 9.661 9.661 -0.002 0.002 0.001 0.000
2408 4 -0.863 -2.450 19.865 0.005 -0.000 0.006 0.000
2412 4 4.173 2.728 13.845 0.003 0.004 -0.010 -0.000
2452 4 7.075 2.996 13.850 0.011 -0.001 -0.005 0.000
2453 4 9.922 -0.251 17.182 -0.005 0.002 0.014 -0.000
2456 4 14.305 0.986 17.801 -0.003 0.006 -0.000 0.000
2485 4 0.224 -0.396 20.890 -0.004 -0.010 0.005 -0.000
2488 4 3.347 -0.728 16.068 0.005 -0.004 0.004 -0.000
2489 4 3.044 5.890 17.709 0.001 0.001 -0.011 -0.000
2492 4 7.016 6.940 14.353 -0.005 -0.002 -0.010 0.000
2493 4 9.753 2.765 18.212 -0.008 -0.006 0.001 -0.000
2496 4 11.869 7.935 16.225 -0.008 0.004 -0.003 -0.000
2497 4 12.311 6.120 18.674 -0.006 0.001 0.001 0.000
2525 4 2.298 8.198 16.635 0.001 0.006 -0.007 -0.000
2528 4 0.077 6.707 15.836 0.003 0.001 -0.003 -0.000
2529 4 5.279 5.655 18.476 -0.007 -0.000 -0.006 0.000
2532 4 7.881 6.845 17.022 -0.001 0.002 -0.010 0.000
2533 4 10.522 6.581 14.936 -0.008 -0.006 0.005 -0.000
2536 4 12.535 11.385 18.486 0.004 -0.005 0.005 0.000
2568 4 -0.077 8.546 17.687 0.003 -0.004 -0.000 0.000
2569 4 5.873 10.381 17.589 0.009 0.014 -0.007 0.000
2572 4 11.875 10.195 20.325 -0.003 0.003 -0.001 0.000
2573 4 10.644 10.867 15.017 -0.010 0.006 0.010 0.000
2577 4 9.794 13.411 18.615 0.004 0.005 0.001 0.000
165 4 -2.787 12.949 -1.550 -0.008 -0.004 0.005 -0.000
166 4 2.547 12.598 -1.919 0.003 -0.012 0.003 0.000
2487 4 9.076 0.365 15.069 -0.001 -0.019 -0.010 0.000
405 4 -1.840 1.023 0.423 -0.000 -0.010 -0.010 0.000
2082 4 -2.200 3.751 20.532 -0.004 -0.004 -0.001 -0.000
481 4 0.829 2.213 -0.257 0.008 -0.002 -0.004 0.000
809 4 8.521 -3.892 6.868 0.001 0.012 0.007 0.000
1204 4 -0.426 4.333 3.773 0.012 -0.007 -0.005 -0.000
2418 4 8.112 -1.433 17.887 0.004 0.000 0.012 0.000
811 4 0.512 -0.672 0.763 0.007 -0.005 0.001 -0.000
1281 4 -2.232 2.117 2.952 0.000 0.003 0.003 -0.000
2530 4 2.074 12.573 18.999 0.005 0.004 0.004 -0.000
2414 4 5.644 2.616 16.798 0.006 0.008 -0.017 0.000
842 4 -4.085 2.992 9.111 -0.000 0.004 0.006 0.000
407 4 -1.680 0.340 4.231 0.004 -0.003 -0.002 -0.000
4479 4 -2.247 1.514 10.015 0.014 -0.014 0.010 0.000
1609 4 3.536 -0.329 11.171 -0.012 -0.000 -0.003 -0.000
1013 4 7.799 8.640 5.630 0.001 0.003 -0.001 0.000
412 4 1.615 -0.798 -1.457 -0.002 0.013 -0.010 0.000
812 4 10.073 -3.144 0.131 0.003 -0.005 -0.002 -0.000
2609 4 4.216 11.348 19.351 -0.007 0.006 -0.000 0.000
172 4 4.500 7.201 -3.065 -0.009 -0.002 0.001 -0.000
1817 4 7.626 6.103 10.017 -0.010 -0.004 0.008 -0.000
1209 4 -1.550 -0.165 6.672 -0.001 -0.003 -0.001 -0.000
13 4 -0.335 -1.481 -4.074 0.011 -0.012 -0.008 0.000
96 4 6.471 3.633 -4.452 -0.011 0.007 0.005 -0.000
2022 4 12.721 0.982 10.981 -0.006 0.003 0.009 0.000
2213 4 8.444 11.222 18.669 -0.006 -0.004 0.002 0.000
102 4 12.260 2.401 -4.642 -0.006 0.006 -0.001 -0.000
2494 4 10.271 6.005 17.506 0.006 -0.002 -0.003 -0.000
2174 4 11.825 12.656 16.758 -0.002 -0.009 -0.008 -0.000
413 4 3.370 -1.872 1.506 0.002 0.007 0.006 0.000
2217 4 13.299 12.869 14.768 0.015 -0.007 -0.008 -0.000
1322 4 -1.946 11.653 7.159 -0.002 -0.002 0.002 0.000
2406 4 -3.063 -3.267 20.990 0.003 0.001 -0.002 0.000
1405 4 4.055 11.623 6.741 0.001 -0.004 0.004 -0.000
2531 4 6.685 4.734 16.430 -0.010 -0.007 -0.006 0.000
970 4 6.266 10.530 5.658 0.006 0.005 -0.005 0.000
140 4 14.785 9.580 -1.096 0.001 0.000 0.002 0.000
1615 4 8.512 -3.836 14.024 -0.016 -0.013 0.005 0.000
1617 4 12.129 -2.185 8.773 0.001 -0.002 -0.003 0.000
941 4 14.874 11.591 1.451 0.005 -0.003 0.007 0.000
521 4 -3.133 8.939 -0.590 0.009 -0.002 0.001 -0.000
442 4 -1.895 -3.535 0.489 0.004 0.004 -0.003 0.000
2454 4 2.200 4.058 14.962 -0.004 -0.002 0.010 -0.000
217 4 10.376 6.026 -2.800 0.006 0.002 0.006 0.000
403 4 1.589 -1.180 2.924 -0.012 0.002 -0.003 -0.000
1803 4 -4.460 14.436 14.996 -0.002 0.010 0.008 0.000
806 4 -0.088 1.006 2.657 -0.006 0.003 -0.002 -0.000
1619 4 14.704 -3.896 10.333 0.006 0.005 -0.002 -0.000
1262 4 11.010 3.893 5.649 -0.010 0.001 0.001 -0.000
1813 4 7.527 9.690 10.632 -0.002 0.001 0.002 0.000
2019 4 11.175 -2.593 18.195 -0.006 -0.002 0.003 -0.000
613 4 6.410 9.027 -1.188 0.004 -0.010 0.003 -0.000
211 4 7.373 13.165 2.149 0.007 -0.002 -0.013 -0.000
615 4 11.166 13.694 1.074 -0.002 0.003 -0.006 -0.000
1604 4 -2.226 -1.287 16.248 -0.006 0.003 0.004 0.000
2004 4 1.877 -2.087 13.841 0.002 0.013 0.001 0.000
2482 4 -0.136 5.171 21.305 0.005 0.003 0.004 0.000
2849 4 2.137 1.665 19.480 0.005 -0.001 0.005 -0.000
2455 4 8.791 0.478 19.195 0.002 -0.002 0.003 0.000
22 4 14.241 -1.349 -0.442 -0.001 0.009 -0.007 -0.000
163 4 -0.008 12.522 -2.075 -0.001 0.003 -0.001 -0.000
1681 4 -2.556 -3.650 14.158 0.013 0.005 -0.000 0.000
2484 4 3.744 3.378 18.636 -0.006 0.002 0.005 -0.000
9977 4 9.537 -4.708 9.514 -0.004 -0.012 -0.003 0.000
1207 4 4.566 -2.969 9.987 0.002 -0.005 0.001 -0.000
2013 4 10.319 -1.642 14.648 0.003 -0.011 -0.007 0.000
1380 4 11.241 11.811 6.605 0.000 -0.000 -0.006 -0.000
215 4 9.729 11.616 -1.015 -0.012 -0.006 -0.004 0.000
5439 4 -2.587 12.779 9.168 0.000 -0.001 0.002 -0.000
489 4 -0.540 2.843 -3.548 -0.012 -0.000 0.001 -0.000
1815 4 9.739 11.467 8.491 -0.008 -0.001 -0.008 -0.000
1015 4 6.562 12.850 6.712 0.010 -0.000 0.002 -0.000
564 4 -3.258 14.054 3.736 0.003 0.014 -0.002 0.000
2490 4 4.171 4.327 16.411 -0.002 0.008 0.001 0.000
214 4 10.023 9.143 -2.857 0.002 -0.008 0.007 0.000
501 4 11.931 0.899 -1.978 -0.002 0.006 -0.009 0.000
1809 4 6.686 12.621 16.276 -0.003 -0.012 -0.001 -0.000
2535 4 13.146 8.987 18.772 -0.002 0.003 -0.003 0.000
95 4 8.478 -2.116 2.509 0.002 0.002 -0.005 -0.000
2934 4 7.138 6.396 20.766 -0.001 0.002 0.002 0.000
2422 4 9.396 -4.444 18.537 -0.001 -0.002 0.010 0.000
1814 4 9.306 12.972 16.324 -0.013 0.000 0.004 0.000
216 4 12.048 7.525 -4.576 0.003 0.007 -0.000 -0.000
2044 4 -0.867 4.269 16.279 0.003 0.003 -0.015 -0.000
2210 4 2.170 11.174 14.300 -0.005 -0.001 -0.004 -0.000
50 4 1.445 3.607 -2.394 -0.004 0.002 -0.006 -0.000
2562 4 -2.871 12.687 20.589 -0.012 -0.000 0.001 0.000
1261 4 12.337 -1.780 4.706 -0.004 -0.008 0.002 -0.000
1661 4 13.801 -0.768 7.086 -0.008 -0.011 0.002 0.000
1205 4 0.019 1.063 7.790 0.003 -0.002 -0.003 0.000
54 4 -0.330 0.453 -2.384 -0.004 -0.012 -0.019 0.000
213 4 7.042 11.610 -0.195 0.001 0.017 -0.014 -0.000
2002 4 -0.486 -0.339 12.750 -0.001 0.001 -0.003 0.000
9561 4 -0.451 -1.964 4.309 0.000 0.001 0.005 -0.000
2611 4 3.427 13.722 20.613 -0.005 0.002 0.009 -0.000
2023 4 12.997 -1.092 19.595 0.003 0.005 0.001 0.000
2930 4 6.032 10.021 20.041 0.013 -0.006 0.007 0.000
1607 4 1.775 -3.403 11.313 0.015 0.009 0.015 -0.000
1299 4 13.273 2.282 6.444 0.009 0.002 -0.003 0.000
8370 4 0.626 -3.138 -1.040 -0.009 0.004 0.005 0.000
46 4 -1.621 -4.289 -1.973 0.005 0.000 -0.007 -0.000
1401 4 -4.361 11.907 4.571 -0.005 0.004 -0.010 -0.000
1411 4 2.338 14.166 8.403 -0.004 0.002 -0.004 0.000
169 4 4.779 12.768 -1.138 0.006 0.003 -0.002 -0.000
2140 4 13.913 13.395 12.509 -0.002 -0.001 0.008 -0.000
19742 4 12.982 13.704 -3.931 -0.011 -0.011 0.012 0.000
100 4 11.167 5.368 -0.572 -0.001 0.004 0.002 0.000
14 4 9.810 -4.136 -2.584 -0.003 -0.007 0.001 -0.000
1008 4 0.957 13.919 2.017 -0.002 0.007 0.003 -0.000
10379 4 13.753 -3.482 16.506 -0.001 0.001 -0.009 0.000
10372 4 8.975 -2.783 16.042 0.016 -0.002 -0.001 -0.000
2043 4 -2.686 -1.675 18.532 0.002 0.004 -0.001 0.000
1253 4 5.666 -4.349 5.646 0.004 -0.005 -0.005 0.000
3017 4 5.518 12.567 21.432 0.007 0.002 0.003 -0.000
2001 4 -3.610 -3.251 16.999 0.000 -0.011 -0.003 0.000
851 4 11.344 -4.945 7.164 -0.005 -0.005 -0.006 -0.000
173 4 3.965 4.673 -2.753 -0.005 -0.010 0.007 -0.000
130 4 0.110 8.206 -3.967 0.001 -0.010 0.002 -0.000
2098 4 13.448 8.787 12.394 -0.003 0.002 -0.004 0.000
2179 4 12.803 10.205 16.332 -0.005 -0.010 -0.004 0.000
1807 4 -1.865 14.407 14.912 0.003 -0.001 -0.004 -0.000
611 4 7.673 10.768 -3.487 0.005 0.002 -0.003 -0.000
2215 4 14.785 11.878 16.318 0.011 -0.000 0.004 -0.000
1702 4 12.669 6.058 13.968 0.003 -0.006 -0.003 -0.000
19 4 12.249 -4.356 -0.152 0.001 -0.001 0.007 -0.000
2527 4 0.448 5.959 18.149 0.005 -0.007 0.000 0.000
255 4 11.081 13.777 -1.973 -0.002 -0.006 -0.007 -0.000
1214 4 7.349 -4.423 8.901 0.006 0.001 0.008 0.000
862 4 13.308 4.703 4.782 0.002 -0.002 0.009 -0.000
127 4 2.627 9.893 -2.711 0.001 0.007 0.007 -0.000
451 4 0.888 -3.044 1.345 0.006 0.005 0.008 0.000
19779 4 12.094 10.575 -2.861 -0.005 0.010 -0.002 0.000
132 4 2.881 4.445 -4.753 -0.001 0.004 -0.001 0.000
19809 4 5.272 10.445 -2.913 0.000 -0.009 0.003 0.000
1605 4 -3.808 0.136 3.034 0.011 0.008 -0.010 -0.000
2893 4 8.410 3.421 20.882 0.011 0.006 -0.003 -0.000
577 4 13.459 14.784 -1.526 -0.013 0.007 -0.005 0.000
1406 4 3.295 13.444 10.684 0.004 -0.006 0.014 -0.000
134 4 4.310 2.390 -3.734 0.012 -0.008 0.005 -0.000
2498 4 10.638 5.122 20.219 -0.002 0.002 -0.000 0.000
9922 4 0.273 -4.085 7.764 -0.001 -0.006 0.001 0.000
2534 4 7.614 8.481 18.751 0.005 -0.005 0.002 0.000
2932 4 10.604 10.853 17.521 -0.007 -0.001 0.013 0.000
3332 4 8.172 5.049 18.935 0.003 -0.003 -0.011 -0.000
2812 4 4.022 -0.291 19.423 -0.008 0.004 -0.009 0.000
543 4 13.819 8.928 4.769 0.004 0.001 0.003 -0.000
3005 4 -0.083 13.082 16.865 -0.007 -0.007 -0.010 0.000
1732 4 5.291 11.221 8.759 -0.001 -0.008 -0.000 0.000
144 4 14.227 9.250 -4.014 -0.002 0.002 -0.004 0.000
19765 4 -4.519 11.151 0.048 -0.000 -0.005 0.006 -0.000
2218 4 10.390 14.157 14.785 0.002 0.004 -0.000 -0.000
1770 4 2.242 13.391 16.221 0.008 0.012 0.003 -0.000
2860 4 12.694 1.164 21.034 0.012 -0.008 0.009 -0.000
2486 4 1.830 4.395 19.856 -0.004 0.011 -0.000 -0.000
48 4 2.039 -2.140 -3.332 -0.006 -0.005 0.001 0.000
1220 4 12.907 -3.491 6.671 0.006 -0.008 0.005 -0.000
2041 4 -2.013 1.317 20.840 -0.000 -0.004 -0.000 0.000
146 4 12.889 6.791 2.746 0.003 -0.000 -0.008 -0.000
2459 4 8.515 -1.968 20.676 -0.001 0.001 -0.002 0.000
19686 4 0.400 5.449 -4.805 0.001 -0.007 0.009 -0.000
414 4 7.434 -3.604 -3.409 -0.001 -0.006 -0.006 0.000
207 4 -1.027 13.638 -3.766 0.007 -0.003 0.005 0.000
1379 4 14.602 10.917 6.664 -0.004 0.005 -0.000 0.000
2576 4 10.199 14.885 20.917 -0.001 -0.005 -0.008 -0.000
2856 4 6.312 -0.514 18.946 -0.002 0.005 -0.010 -0.000
11176 4 6.796 -3.139 19.854 -0.002 0.007 -0.002 0.000
964 4 -1.768 10.152 4.038 0.006 -0.009 -0.001 0.000
1055 4 9.588 13.628 7.064 0.004 -0.005 0.004 -0.000
1421 4 13.522 13.399 6.017 -0.006 -0.003 0.003 0.000
2211 4 7.889 13.355 20.406 -0.004 0.002 -0.004 -0.000
63 4 13.716 2.823 -2.493 -0.002 -0.004 0.007 0.000
19814 4 6.891 13.754 -2.344 -0.004 -0.006 0.009 -0.000
9980 4 14.541 -2.104 14.521 0.001 0.013 0.011 0.000
541 4 14.271 7.045 -1.286 0.006 0.008 0.001 0.000
2411 4 5.033 -2.665 18.130 0.005 -0.002 0.010 0.000
103 4 13.345 5.272 -2.610 -0.016 -0.008 0.006 0.000
937 4 14.075 3.811 1.840 0.010 -0.003 0.003 -0.000
2100 4 13.397 5.791 16.666 -0.003 0.011 -0.010 0.000
1364 4 -4.713 10.798 9.109 -0.002 -0.005 -0.005 -0.000
1368 4 0.978 12.385 6.840 -0.008 -0.002 -0.009 -0.000
2965 4 -0.076 11.935 21.319 -0.009 -0.000 0.006 0.000
52 4 3.878 -0.250 -2.467 -0.003 0.002 -0.002 0.000
1407 4 2.658 13.359 13.635 0.002 0.010 0.006 -0.000
19764 4 -2.192 9.499 -2.662 0.003 -0.006 0.003 -0.000
605 4 -0.735 14.813 -1.531 0.000 0.003 0.003 0.000
1019 4 11.071 14.891 5.726 -0.012 0.010 -0.003 -0.000
802 4 -3.262 -0.169 8.750 -0.000 -0.002 -0.005 -0.000
2901 4 12.905 3.745 20.555 -0.003 -0.007 0.007 -0.000
81 4 -2.710 -0.965 -3.658 0.003 0.012 0.003 -0.000
2619 4 12.800 13.132 20.268 -0.001 -0.003 -0.000 0.000
6120 4 -3.674 6.384 17.743 -0.008 0.002 0.014 -0.000
2015 4 7.354 -3.581 17.644 -0.000 0.004 -0.004 -0.000
1412 4 7.394 13.271 8.906 0.002 -0.006 -0.002 -0.000
9566 4 -1.784 -3.250 6.543 0.014 0.014 -0.005 -0.000
415 4 13.603 -3.819 3.984 0.003 -0.003 0.003 -0.000
1601 4 -1.871 -2.107 8.754 -0.001 -0.004 -0.001 -0.000
2212 4 4.735 14.783 14.977 0.005 -0.004 0.004 -0.000
1621 4 14.540 -1.372 11.983 -0.005 -0.002 -0.003 -0.000
6119 4 -3.376 3.779 18.340 0.001 -0.005 0.008 0.000
2977 4 14.101 10.226 20.947 0.003 0.005 -0.008 -0.000
83 4 -2.718 4.816 -4.213 0.005 0.008 0.007 0.000
1009 4 6.246 13.446 4.274 0.000 0.003 0.007 0.000
2495 4 10.956 -1.158 21.000 -0.001 -0.001 -0.013 -0.000
210 4 5.794 12.819 -4.382 0.001 0.008 0.001 0.000
86 4 -2.265 7.096 -2.267 -0.005 -0.002 -0.008 0.000
251 4 8.814 13.548 -0.441 -0.002 -0.007 0.002 0.000
176 4 10.221 11.623 -3.525 0.002 0.010 -0.001 -0.000
19361 4 1.666 12.500 -4.189 0.007 -0.002 -0.003 0.000
820 4 14.237 0.947 4.490 -0.009 0.008 -0.010 -0.000
2929 4 -1.494 8.891 19.572 0.012 -0.004 -0.009 0.000
2449 4 1.726 -1.555 18.916 -0.006 -0.009 0.009 0.000
9967 4 -1.546 -3.539 11.164 -0.013 -0.010 0.009 -0.000
2446 4 4.098 3.908 21.361 -0.006 -0.005 0.000 -0.000
19762 4 -3.092 14.543 -3.689 -0.003 0.005 0.010 0.000
19730 4 2.366 8.734 -4.554 -0.002 0.001 -0.004 0.000
901 4 11.650 1.169 4.343 0.009 0.004 0.008 0.000
9525 4 -1.108 -3.830 2.630 -0.001 -0.004 0.003 0.000
3365 4 1.061 7.460 19.855 -0.008 -0.000 -0.001 0.000
2409 4 3.090 -3.705 18.297 -0.001 -0.000 -0.001 0.000
2814 4 5.772 1.841 18.861 0.012 -0.008 -0.007 0.000
1341 4 14.439 6.438 6.070 -0.008 -0.007 -0.008 -0.000
963 4 -3.658 7.424 5.131 -0.000 0.001 -0.004 0.000
19682 4 -2.516 1.467 -3.756 0.013 -0.006 0.003 -0.000
19415 4 8.622 13.394 -3.901 0.001 0.007 0.003 0.000
2420 4 13.962 0.287 13.784 0.001 0.007 0.000 -0.000
1403 4 1.309 15.017 11.973 -0.007 -0.002 0.007 -0.000
10780 4 13.413 -3.544 19.503 0.012 0.004 -0.007 -0.000
1012 4 6.277 14.296 0.236 0.007 0.006 -0.007 0.000
23678 4 -5.087 4.581 -4.700 -0.010 0.007 0.012 0.000
9562 4 -3.844 -0.928 5.392 -0.003 -0.005 -0.008 -0.000
2207 4 0.910 14.296 21.219 -0.013 0.001 0.004 0.000
4997 4 -4.015 12.897 7.270 -0.003 0.005 0.006 -0.000
19728 4 0.290 10.214 -2.877 0.002 0.000 0.015 0.000
844 4 -4.333 1.956 1.133 -0.003 -0.012 -0.003 0.000
1404 4 -0.375 13.849 8.534 0.003 -0.010 0.003 -0.000
1611 4 5.065 -2.246 14.090 0.007 -0.003 0.000 -0.000
2011 4 6.651 -1.904 15.946 -0.003 -0.000 0.005 -0.000
2124 4 -4.278 7.007 15.340 -0.010 0.004 -0.008 -0.000
607 4 2.042 14.859 -2.258 0.005 0.006 0.004 -0.000
2579 4 14.342 9.034 14.844 -0.001 0.004 0.004 -0.000
9564 4 -3.485 -3.710 4.650 0.002 -0.002 0.006 -0.000
2896 4 9.954 8.383 19.223 -0.012 0.012 -0.000 0.000
9177 4 14.916 -3.935 -2.388 -0.000 -0.007 -0.010 -0.000
2 4 -3.916 -1.183 0.461 0.010 0.002 -0.002 -0.000
1011 4 5.102 13.846 8.361 0.003 -0.002 -0.006 -0.000