ITEM: TIMESTEP
10000
ITEM: NUMBER OF ATOMS
32000
ITEM: BOX BOUNDS pp pp pp
-5.022419 75.502419
-4.844461 75.324461
-5.649883 76.129883
ITEM: ATOMS id type x y z vx vy vz q
90 4 -0.108 -0.182 3.316 -0.007 0.005 0.007 -0.000
91 4 5.579 10.330 -2.604 -0.000 0.004 0.017 -0.000
131 4 7.372 13.321 5.182 0.011 0.003 0.008 -0.000
138 4 6.929 11.010 4.803 0.001 0.007 -0.009 -0.000
174 4 0.530 5.430 3.051 0.011 0.003 0.002 -0.000
179 4 12.311 10.324 -0.862 -0.008 -0.005 -0.001 -0.000
406 4 5.826 2.371 3.330 0.017 0.003 0.004 0.000
445 4 1.326 -2.638 0.317 0.001 -0.003 -0.004 0.000
447 4 0.374 2.494 -1.063 -0.010 0.007 0.008 -0.000
450 4 5.827 -3.038 11.547 0.004 0.007 0.007 0.000
452 4 7.170 3.499 -1.876 0.006 0.007 0.004 0.000
454 4 4.483 2.732 1.148 0.002 -0.001 -0.011 0.000
458 4 13.780 2.998 4.053 -0.009 -0.005 0.006 0.000
460 4 9.201 2.607 -0.880 0.005 0.001 -0.002 -0.000
486 4 2.994 -1.668 -1.193 0.000 -0.006 0.001 -0.000
487 4 5.424 4.632 -0.468 0.001 0.009 0.003 0.000
488 4 1.587 6.246 0.551 0.006 0.008 -0.000 -0.000
490 4 -1.718 6.307 4.525 0.006 -0.014 -0.004 0.000
494 4 5.472 -0.743 2.813 0.012 0.002 0.007 -0.000
527 4 -2.632 2.568 1.304 0.005 0.005 -0.002 -0.000
529 4 -2.765 7.075 2.375 0.002 -0.001 -0.002 -0.000
531 4 2.924 4.765 2.163 0.002 -0.011 -0.008 0.000
532 4 -1.382 4.276 -3.365 -0.010 0.001 -0.002 0.000
533 4 7.538 8.502 -2.553 -0.008 -0.007 0.007 0.000
539 4 6.463 4.030 10.205 -0.003 0.002 0.008 -0.000
563 4 3.100 10.283 0.608 -0.001 0.008 0.001 -0.000
567 4 -3.458 13.338 5.398 -0.002 0.006 -0.003 0.000
571 4 6.815 2.384 0.291 0.001 0.004 0.007 -0.000
574 4 8.528 3.577 -3.874 -0.001 0.012 -0.002 -0.000
575 4 2.314 1.756 1.094 -0.003 -0.003 0.004 -0.000
576 4 2.129 7.333 -3.264 -0.007 0.014 -0.005 0.000
810 4 -0.010 6.343 8.189 0.007 0.009 0.006 0.000
847 4 7.976 -1.753 5.172 -0.012 0.010 -0.009 0.000
850 4 -2.871 -4.004 -2.210 -0.000 -0.002 0.002 -0.000
854 4 1.808 9.696 6.043 -0.001 0.008 0.006 -0.000
855 4 4.607 -1.820 1.059 -0.008 -0.003 -0.011 0.000
860 4 10.459 -2.469 -2.225 -0.007 -0.007 0.009 -0.000
889 4 -0.938 9.302 4.758 -0.002 -0.002 -0.006 0.000
890 4 6.658 -1.968 7.581 0.002 0.001 -0.005 0.000
891 4 4.229 6.025 9.294 0.006 -0.006 -0.001 -0.000
892 4 7.382 0.738 2.320 -0.005 -0.001 -0.003 0.000
893 4 1.066 4.968 -2.250 0.011 0.002 -0.003 0.000
895 4 9.010 0.329 0.326 -0.011 -0.002 0.003 0.000
896 4 11.611 4.125 5.592 0.012 -0.003 0.005 -0.000
897 4 9.469 -3.895 4.612 0.001 0.005 -0.011 -0.000
898 4 10.798 6.253 0.442 0.008 0.002 -0.001 -0.000
899 4 15.051 7.524 2.445 0.008 -0.002 -0.000 -0.000
900 4 10.708 8.740 0.657 0.005 0.002 0.005 0.000
923 4 -4.308 10.084 8.324 -0.000 -0.015 -0.001 -0.000
927 4 4.623 6.076 3.786 -0.000 0.008 0.011 -0.000
928 4 -0.590 10.445 1.851 0.004 -0.004 -0.009 0.000
929 4 -3.212 -1.475 3.113 0.004 0.004 0.001 -0.000
931 4 1.746 2.975 -3.217 0.006 0.001 0.004 -0.000
933 4 5.934 6.828 -0.593 0.013 -0.000 0.002 0.000
935 4 3.055 -1.367 -4.086 -0.000 -0.005 0.005 -0.000
938 4 5.563 9.198 0.068 0.011 0.000 -0.011 0.000
939 4 9.646 14.051 4.082 -0.004 -0.001 0.001 -0.000
965 4 -2.259 7.423 6.425 -0.001 0.007 0.007 -0.000
971 4 6.602 10.115 11.915 0.002 -0.002 0.003 0.000
972 4 6.325 12.380 -3.550 -0.002 -0.002 0.011 0.000
974 4 9.621 13.275 6.452 -0.000 0.002 0.001 -0.000
975 4 14.921 8.160 5.611 0.014 0.002 -0.007 0.000
976 4 7.331 11.890 2.163 0.002 -0.001 0.005 -0.000
1206 4 0.650 -2.615 2.615 0.002 -0.004 0.006 -0.000
1208 4 2.207 -3.824 4.417 -0.005 -0.000 0.002 -0.000
1210 4 1.431 -2.865 9.484 0.016 0.001 -0.003 0.000
1212 4 8.621 2.740 6.827 0.008 0.001 -0.016 -0.000
1216 4 14.203 6.240 10.753 -0.008 0.004 0.003 0.000
1218 4 9.249 4.585 10.685 0.003 -0.001 -0.000 0.000
1244 4 1.852 -2.291 7.168 -0.009 0.009 -0.000 -0.000
1245 4 -0.774 1.682 12.821 0.002 -0.007 0.007 -0.000
1248 4 -1.318 -3.051 3.961 0.004 0.001 0.005 -0.000
1249 4 6.964 0.584 7.355 0.008 0.000 0.002 -0.000
1250 4 11.273 4.224 13.955 -0.004 -0.001 0.001 0.000
1252 4 -0.159 0.206 6.983 -0.007 -0.005 -0.005 0.000
1254 4 11.940 8.789 5.678 0.008 -0.003 -0.010 0.000
1256 4 14.323 3.822 -3.110 -0.010 -0.003 -0.008 -0.000
1257 4 11.302 2.941 8.592 0.003 -0.002 -0.004 -0.000
1258 4 10.709 6.546 6.458 -0.004 0.009 -0.004 0.000
1285 4 -1.669 2.227 3.702 0.006 0.005 -0.012 -0.000
1286 4 3.164 1.570 3.582 -0.000 -0.001 0.000 -0.000
1287 4 1.131 1.800 4.975 -0.012 0.004 -0.002 -0.000
1288 4 -1.760 11.988 10.994 0.011 -0.001 -0.002 0.000
1289 4 10.372 1.007 13.179 -0.013 0.004 0.001 0.000
1291 4 4.458 14.816 11.099 0.015 0.003 0.007 0.000
1292 4 2.162 5.086 9.004 0.006 0.000 -0.005 0.000
1293 4 -0.412 -1.478 9.199 -0.001 0.010 -0.001 -0.000
1295 4 10.405 3.793 0.724 0.005 0.007 0.001 -0.000
1296 4 5.744 2.665 6.105 -0.002 -0.003 0.000 0.000
1297 4 12.426 8.036 2.163 0.006 -0.003 -0.001 0.000
1298 4 13.423 13.224 7.447 0.003 0.010 0.000 -0.000
1300 4 12.080 4.980 11.808 0.006 0.001 0.000 -0.000
1324 4 3.103 5.926 5.576 0.008 -0.001 0.004 -0.000
1327 4 -0.988 14.188 5.399 0.006 0.013 0.008 0.000
1328 4 -2.503 10.847 3.476 0.005 -0.008 0.006 -0.000
1329 4 9.226 3.281 4.532 -0.006 0.002 0.004 0.000
1330 4 -1.474 2.131 6.528 0.010 -0.001 -0.011 0.000
1331 4 3.964 6.572 1.239 0.005 -0.003 0.003 0.000
1333 4 12.036 -3.862 9.408 0.002 0.007 -0.005 -0.000
1334 4 12.013 11.221 4.545 -0.003 -0.006 -0.008 -0.000
1335 4 5.346 1.783 9.135 0.003 -0.013 0.005 -0.000
1336 4 6.573 7.194 2.178 -0.006 -0.013 0.014 -0.000
1337 4 12.066 -1.736 8.134 0.007 -0.006 0.004 0.000
1338 4 5.107 6.706 6.999 -0.003 -0.007 -0.003 -0.000
1370 4 1.821 13.672 8.962 0.002 -0.001 -0.002 0.000
1371 4 8.588 0.957 4.804 0.012 -0.008 0.011 -0.000
1373 4 6.149 4.962 1.883 0.000 0.002 -0.003 0.000
1374 4 12.057 14.302 5.873 0.008 0.003 -0.002 0.000
1375 4 7.779 6.674 8.778 0.000 -0.011 -0.004 0.000
1377 4 8.006 4.905 0.221 -0.005 0.001 0.007 0.000
1610 4 2.580 2.481 9.580 -0.003 0.002 0.008 0.000
1612 4 12.405 -0.267 14.474 0.001 -0.006 -0.011 0.000
1643 4 2.369 1.795 20.715 0.010 -0.002 0.001 -0.000
1644 4 0.823 3.162 10.954 0.002 -0.000 0.006 0.000
1645 4 0.519 -0.902 14.233 0.011 0.002 -0.006 -0.000
1646 4 3.371 7.829 11.830 0.005 -0.007 -0.004 -0.000
1647 4 3.671 1.771 11.508 0.001 0.001 -0.000 -0.000
1648 4 0.501 6.910 5.137 -0.003 0.000 -0.006 -0.000
1650 4 3.816 4.240 10.919 -0.010 -0.008 -0.003 -0.000
1651 4 -1.991 0.455 11.170 0.000 -0.006 0.007 -0.000
1652 4 13.119 6.916 7.442 0.000 0.001 -0.002 -0.000
1654 4 10.280 1.896 15.781 -0.003 0.002 0.007 0.000
1655 4 10.798 2.359 10.956 -0.003 -0.000 0.005 -0.000
1656 4 2.170 -0.349 8.985 -0.002 -0.003 0.003 0.000
1657 4 13.049 -1.903 10.337 0.001 -0.012 -0.012 0.000
1683 4 -2.219 6.292 17.280 0.002 0.011 -0.003 -0.000
1685 4 -0.427 -1.296 11.737 0.009 0.002 -0.001 0.000
1689 4 4.371 4.435 7.397 0.004 0.003 0.011 -0.000
1690 4 5.203 10.993 8.866 0.014 -0.008 0.004 0.000
1691 4 -0.098 0.456 16.313 -0.009 0.002 0.006 -0.000
1692 4 -0.330 4.204 5.234 -0.001 -0.007 0.002 0.000
1693 4 -1.785 12.743 8.677 -0.005 0.002 -0.008 0.000
1694 4 13.947 4.607 14.843 -0.001 -0.002 -0.007 0.000
1699 4 13.120 6.801 4.438 0.002 -0.002 -0.003 -0.000
1728 4 1.752 7.841 9.559 0.001 -0.004 -0.002 -0.000
1729 4 -1.690 9.232 11.634 0.007 0.000 0.012 -0.000
1730 4 7.273 7.592 6.755 0.011 -0.002 0.007 -0.000
1731 4 6.818 13.499 10.025 -0.006 0.002 -0.012 0.000
1734 4 -0.493 9.091 7.581 -0.007 -0.014 0.002 0.000
1735 4 7.459 4.952 12.674 -0.004 -0.002 -0.005 -0.000
1736 4 6.954 5.557 4.826 0.003 -0.001 0.000 0.000
1739 4 5.842 9.316 7.215 -0.001 0.005 -0.000 0.000
1763 4 -0.681 5.550 11.137 0.003 0.009 -0.004 0.000
1766 4 -3.630 11.883 18.383 -0.005 -0.013 0.003 -0.000
1767 4 -0.201 7.686 11.595 -0.008 0.003 -0.008 -0.000
1773 4 10.829 9.150 3.409 -0.002 -0.006 -0.003 -0.000
1774 4 11.020 10.333 9.627 -0.002 0.007 -0.003 -0.000
1775 4 12.755 10.543 11.721 0.003 0.009 0.007 -0.000
1776 4 9.102 8.783 7.256 -0.011 -0.014 -0.002 -0.000
1777 4 11.696 7.798 10.935 -0.009 0.003 -0.000 -0.000
2010 4 11.157 8.169 8.381 -0.002 0.003 0.006 0.000
2012 4 -0.158 0.993 10.316 0.012 0.006 -0.002 0.000
2018 4 11.715 1.887 18.252 -0.006 0.001 0.005 0.000
2045 4 3.621 9.619 10.250 0.005 0.010 0.005 -0.000
2046 4 1.577 -0.162 19.014 0.003 0.011 0.002 -0.000
2048 4 -4.800 5.575 20.274 -0.007 -0.012 0.002 -0.000
2049 4 -2.700 0.683 16.256 0.010 0.001 0.018 -0.000
2050 4 11.084 5.637 9.288 0.006 -0.001 -0.006 -0.000
2051 4 2.739 7.193 15.184 0.002 -0.003 0.001 -0.000
2052 4 5.778 8.194 9.566 -0.005 0.015 -0.003 -0.000
2053 4 7.033 4.394 15.583 0.003 0.009 0.001 0.000
2054 4 9.442 2.983 19.645 -0.002 -0.003 -0.006 0.000
2055 4 12.188 3.804 16.451 -0.001 -0.001 -0.003 0.000
2084 4 -2.989 3.861 5.575 -0.004 -0.007 -0.007 0.000
2086 4 1.797 5.904 11.454 0.005 -0.001 -0.002 0.000
2087 4 -2.018 3.266 10.914 0.005 0.003 -0.002 -0.000
2088 4 -0.163 7.722 2.294 0.002 -0.008 -0.003 -0.000
2089 4 1.340 9.714 11.951 0.000 0.004 0.000 0.000
2091 4 8.675 8.216 10.697 -0.000 -0.010 0.006 -0.000
2092 4 9.427 4.587 7.596 0.016 -0.007 0.008 -0.000
2093 4 1.609 0.258 11.850 -0.012 -0.002 0.008 -0.000
2095 4 12.641 12.476 16.750 -0.005 0.002 -0.005 -0.000
2125 4 7.110 4.803 7.630 0.006 0.005 -0.003 -0.000
2129 4 3.747 10.860 18.617 -0.005 -0.008 0.003 -0.000
2131 4 8.989 11.979 9.627 -0.002 0.012 -0.006 -0.000
2133 4 7.205 10.285 9.271 0.004 0.000 -0.004 0.000
2134 4 8.442 6.709 17.445 0.001 -0.012 0.003 0.000
2135 4 10.920 6.486 15.805 0.003 0.007 0.005 0.000
2136 4 9.056 14.245 17.157 -0.002 -0.006 -0.005 0.000
2137 4 11.354 4.509 19.166 0.002 -0.006 0.001 -0.000
2138 4 13.750 8.301 12.237 -0.011 0.003 -0.007 0.000
2165 4 2.266 6.655 18.032 0.002 -0.006 -0.014 -0.000
2170 4 9.267 12.777 15.417 0.004 0.010 -0.002 -0.000
2173 4 8.658 8.450 13.059 -0.009 0.005 0.004 -0.000
2412 4 2.860 8.966 16.853 -0.000 0.002 -0.003 -0.000
2452 4 5.042 3.622 13.206 0.005 -0.001 0.003 -0.000
2453 4 8.827 1.821 17.480 -0.013 0.009 0.005 -0.000
2488 4 0.954 -4.403 12.186 0.002 -0.002 -0.002 -0.000
2489 4 2.753 4.288 17.067 -0.012 -0.009 -0.004 -0.000
2492 4 4.950 7.564 17.157 0.004 0.001 0.003 0.000
2493 4 10.860 0.047 17.136 -0.001 -0.001 0.004 -0.000
2497 4 14.023 5.289 17.754 -0.004 0.009 -0.008 -0.000
2525 4 4.839 8.525 14.880 0.007 0.001 0.006 0.000
2528 4 6.238 6.631 11.138 0.002 -0.016 0.004 0.000
2529 4 6.873 3.590 20.368 -0.000 0.003 -0.011 -0.000
2532 4 4.890 3.199 15.803 -0.005 -0.007 0.006 0.000
2533 4 12.659 6.337 13.829 0.024 -0.002 0.001 -0.000
2572 4 9.489 8.524 15.541 -0.001 -0.014 -0.007 0.000
2573 4 9.330 10.542 11.631 0.002 -0.000 0.008 0.000
2577 4 11.281 13.708 14.838 0.003 0.005 -0.001 0.000
166 4 -1.042 14.045 1.195 -0.008 0.003 -0.006 -0.000
2487 4 10.114 -0.744 10.630 -0.008 -0.003 -0.004 0.000
481 4 0.501 -0.613 -0.594 0.003 -0.002 0.002 0.000
2418 4 8.453 2.634 9.284 0.008 -0.008 0.007 -0.000
811 4 -2.948 0.314 1.067 -0.010 0.007 0.002 -0.000
2414 4 6.517 2.405 17.819 -0.008 0.011 -0.008 0.000
842 4 -3.962 2.202 3.143 -0.002 -0.001 -0.007 0.000
1609 4 4.791 -0.534 8.058 0.001 -0.007 0.005 0.000
1013 4 0.099 11.726 7.321 -0.002 -0.001 0.001 0.000
412 4 -0.200 1.215 -3.099 -0.005 -0.000 0.001 -0.000
172 4 2.811 3.789 -0.469 0.006 0.002 0.001 0.000
1817 4 12.756 10.630 7.292 -0.013 -0.002 0.007 -0.000
2022 4 9.729 4.323 16.921 -0.004 -0.000 -0.004 -0.000
2494 4 6.648 1.881 14.942 0.005 -0.001 -0.010 -0.000
413 4 3.518 1.902 7.045 -0.007 0.007 -0.000 -0.000
2217 4 11.033 12.792 11.118 0.007 -0.005 -0.004 -0.000
1322 4 -2.162 11.237 6.067 -0.006 -0.002 -0.005 0.000
2406 4 0.079 2.112 19.712 -0.002 -0.001 -0.014 -0.000
1405 4 0.555 14.369 2.988 0.007 0.009 -0.002 0.000
2531 4 2.926 4.987 14.598 -0.003 -0.002 0.005 0.000
970 4 5.687 7.980 4.738 -0.010 -0.004 -0.003 0.000
140 4 8.548 13.576 -2.101 0.012 0.004 -0.007 0.000
442 4 4.813 0.128 0.133 -0.011 -0.014 -0.005 0.000
2454 4 -0.033 10.349 9.712 0.002 -0.002 -0.010 -0.000
217 4 7.362 5.604 -2.172 -0.003 0.001 -0.008 -0.000
403 4 2.117 7.046 7.259 -0.000 -0.001 -0.002 -0.000
1262 4 14.194 9.537 3.637 -0.002 0.003 -0.001 -0.000
1813 4 6.881 12.616 8.142 -0.001 -0.001 -0.008 -0.000
613 4 1.017 2.803 2.948 0.000 -0.002 -0.003 0.000
2455 4 8.297 -0.250 18.564 0.001 0.009 0.002 0.000
163 4 4.542 9.098 2.599 -0.003 -0.002 -0.005 0.000
2484 4 8.257 2.962 11.966 -0.007 -0.007 -0.007 -0.000
2013 4 12.091 -2.515 17.509 0.001 0.002 -0.008 -0.000
489 4 -0.086 3.967 0.920 -0.002 -0.001 0.003 -0.000
1815 4 8.437 9.264 4.247 -0.009 -0.011 -0.008 0.000
2490 4 3.613 8.876 7.879 -0.008 -0.001 0.008 -0.000
214 4 8.399 8.135 -0.192 0.000 0.004 -0.001 0.000
1809 4 5.404 12.320 11.536 -0.007 0.004 0.011 -0.000
2934 4 4.271 6.158 20.213 -0.003 0.000 -0.001 -0.000
1814 4 9.881 10.620 14.604 -0.002 -0.001 -0.004 -0.000
2044 4 -2.145 10.167 8.907 -0.005 0.007 0.001 0.000
2210 4 3.535 11.293 14.990 -0.004 0.001 -0.002 0.000
50 4 4.829 -0.054 -2.390 -0.006 0.002 -0.004 0.000
54 4 -0.870 -3.385 -3.386 0.009 -0.006 0.007 0.000
213 4 5.500 7.369 -2.954 0.004 -0.001 -0.009 -0.000
2023 4 7.914 1.498 21.179 -0.000 -0.011 -0.006 -0.000
2930 4 8.559 10.134 17.090 -0.001 0.000 -0.006 0.000
8370 4 2.095 -0.493 1.226 -0.005 0.002 0.005 0.000
169 4 3.581 8.288 -1.611 -0.004 0.005 0.007 0.000
100 4 7.918 9.482 1.884 0.002 0.008 -0.002 -0.000
173 4 9.827 5.255 2.668 0.004 0.006 0.008 0.000
130 4 -2.202 4.401 3.050 0.001 0.001 -0.002 -0.000
2179 4 11.420 8.879 13.370 -0.004 0.009 -0.003 -0.000
611 4 12.950 13.033 -1.447 0.010 0.006 -0.003 0.000
19 4 13.503 0.561 4.490 -0.014 0.003 -0.003 -0.000
2527 4 -1.290 7.543 13.814 0.003 0.003 0.005 -0.000
862 4 13.068 3.991 9.756 0.026 0.000 0.004 0.000
127 4 5.475 4.878 -3.677 0.006 0.004 0.006 0.000
19779 4 11.268 11.125 -3.397 0.005 0.001 -0.009 0.000
19809 4 3.432 13.017 0.426 0.003 -0.011 -0.007 0.000
2498 4 8.720 6.269 14.794 0.008 0.004 -0.006 -0.000
2534 4 6.753 5.375 18.568 0.002 -0.002 0.004 0.000
3332 4 2.849 2.944 13.558 0.004 0.004 -0.000 -0.000
2812 4 5.181 0.479 16.212 0.004 0.002 0.009 0.000
1732 4 7.241 12.230 14.054 0.002 0.007 0.003 0.000
1770 4 1.758 9.089 14.619 0.002 -0.003 -0.004 -0.000
1220 4 13.762 1.715 10.623 0.002 -0.001 0.006 0.000
2041 4 0.827 4.259 18.504 -0.010 0.004 0.002 -0.000
146 4 14.454 11.346 0.082 0.002 0.005 0.002 -0.000
2459 4 7.350 -2.404 14.918 0.006 0.005 0.004 0.000
11176 4 7.200 -0.248 9.750 0.006 0.000 -0.002 0.000
964 4 -0.591 1.158 1.264 -0.001 -0.001 -0.002 -0.000
1055 4 4.002 10.334 5.103 0.002 -0.001 -0.013 -0.000
9980 4 10.357 -3.215 12.047 -0.003 0.001 0.008 -0.000
2411 4 0.329 -2.812 16.070 0.003 0.003 0.006 -0.000
1364 4 -0.399 12.094 4.335 0.008 -0.003 -0.001 -0.000
1368 4 1.760 9.941 2.940 -0.014 0.013 -0.007 -0.000
52 4 6.762 0.224 -1.305 0.002 -0.001 0.002 -0.000
19764 4 -1.173 13.235 -1.875 0.005 0.006 0.001 0.000
802 4 0.502 3.243 7.881 0.002 0.008 0.003 0.000
2619 4 8.639 11.442 19.067 -0.005 -0.003 0.004 -0.000
1601 4 -2.484 -2.508 9.474 -0.002 -0.004 -0.007 0.000
2212 4 6.936 8.059 16.043 -0.004 -0.001 0.002 -0.000
6119 4 1.120 6.814 13.529 -0.010 -0.003 -0.007 0.000
2495 4 12.188 -3.921 20.207 0.006 -0.001 -0.004 0.000
251 4 10.295 12.029 -1.189 -0.001 0.000 -0.014 0.000
901 4 9.129 0.599 8.562 0.007 0.009 0.002 0.000
3365 4 2.627 14.170 14.815 0.001 -0.005 -0.003 0.000
2814 4 2.723 1.568 15.941 0.003 -0.010 -0.006 -0.000
19415 4 9.945 9.781 -1.792 0.012 -0.006 0.004 -0.000
1403 4 7.191 10.349 15.137 0.011 -0.001 -0.002 -0.000
10780 4 5.750 -1.196 20.685 -0.004 0.004 0.005 0.000
1611 4 2.049 -2.987 13.939 -0.008 0.004 0.003 0.000
2011 4 8.106 -1.987 11.164 0.008 -0.011 0.002 -0.000
2579 4 13.424 6.975 15.916 -0.001 -0.008 0.001 -0.000
2896 4 5.518 6.200 14.628 -0.003 0.001 -0.009 0.000
9966 4 3.768 -2.706 9.419 -0.012 -0.001 0.006 0.000
1684 4 -0.871 11.664 13.695 0.005 -0.001 0.006 -0.000
2973 4 9.720 6.093 12.397 0.011 0.001 0.011 0.000
1682 4 -1.144 -0.221 18.686 -0.008 0.005 0.007 -0.000
2006 4 0.517 4.620 13.185 -0.007 -0.005 0.005 -0.000
56 4 8.343 -1.352 -1.445 0.004 -0.016 -0.001 0.000
51 4 1.803 -3.857 -2.392 -0.000 -0.009 -0.011 -0.000
2816 4 0.488 2.421 17.322 -0.002 -0.007 0.007 -0.000
851 4 10.103 -0.851 7.004 -0.005 -0.009 0.012 -0.000
8769 4 2.763 -1.486 3.441 -0.003 -0.001 0.001 0.000
1413 4 11.458 12.835 8.690 -0.006 -0.013 -0.005 -0.000
2483 4 -0.178 7.177 16.219 0.000 -0.009 0.001 -0.000
541 4 7.605 10.824 -0.386 -0.000 0.008 0.008 -0.000
9172 4 2.350 0.558 -2.250 -0.001 0.007 -0.002 -0.000
2603 4 5.023 10.254 16.445 -0.007 0.002 -0.009 0.000
2123 4 0.335 5.513 21.137 0.012 0.005 -0.009 -0.000
2892 4 10.550 11.882 17.444 0.008 -0.012 0.005 0.000
60 4 10.691 -1.098 -0.226 0.009 -0.007 -0.003 -0.000
562 4 -1.264 -1.376 1.622 -0.011 -0.004 -0.006 0.000
3289 4 3.788 1.246 18.181 0.003 0.012 0.008 0.000
2965 4 0.154 13.075 15.358 0.013 0.003 -0.001 0.000
1765 4 4.291 10.200 12.694 -0.002 0.002 -0.006 -0.000
934 4 14.465 11.352 5.369 -0.001 0.005 0.005 0.000
2404 4 -1.184 -3.086 18.243 -0.009 -0.016 -0.000 -0.000
2176 4 4.263 12.865 17.444 0.003 0.004 0.002 0.000
1019 4 11.944 13.187 2.983 -0.007 -0.001 -0.004 -0.000
212 4 6.354 6.666 -5.500 -0.007 -0.004 0.002 0.000
2939 4 12.324 9.761 17.402 -0.004 0.003 0.002 -0.000
2450 4 0.154 12.328 18.824 0.007 0.003 0.004 0.000
3247 4 4.570 3.365 19.296 0.016 -0.010 -0.007 -0.000
136 4 12.936 1.474 -4.179 -0.003 0.005 0.006 0.000
1459 4 12.512 11.553 13.805 0.012 -0.002 0.002 0.000
2021 4 10.037 0.309 19.710 -0.003 -0.002 0.009 -0.000
809 4 10.363 0.877 3.275 -0.005 0.002 0.001 -0.000
19736 4 4.186 7.455 -4.974 -0.001 0.007 -0.004 -0.000
1243 4 -1.848 2.566 17.958 0.000 0.000 -0.009 -0.000
3005 4 1.781 12.162 13.512 0.001 -0.004 0.012 -0.000
973 4 9.574 11.799 3.897 -0.000 -0.005 -0.005 0.000
653 4 8.914 11.635 -3.440 -0.001 -0.002 0.002 -0.000
2083 4 -0.098 -3.780 20.215 -0.007 -0.017 -0.005 -0.000
168 4 4.858 14.430 -4.134 -0.002 0.006 -0.011 -0.000
2867 4 11.547 2.466 20.416 -0.000 0.002 -0.000 -0.000
2416 4 3.200 -1.632 12.193 -0.004 0.001 0.002 -0.000
605 4 -2.095 11.998 0.415 0.001 -0.012 -0.002 -0.000
977 4 12.744 10.582 1.829 0.005 -0.009 -0.002 0.000
8778 4 11.479 -1.240 4.166 -0.006 0.004 -0.005 0.000
10338 4 8.099 0.135 15.929 -0.002 0.005 0.000 0.000
2564 4 2.251 14.093 19.542 0.011 0.006 0.000 -0.000
88 4 2.677 5.255 -4.552 0.001 0.003 -0.005 0.000
6159 4 -3.658 5.258 14.898 0.006 0.002 -0.007 -0.000
1012 4 3.725 11.573 2.887 0.006 0.000 0.001 -0.000
1727 4 -2.303 8.773 16.266 -0.008 0.003 -0.000 0.000
170 4 -3.278 11.917 -2.216 0.007 -0.004 0.005 -0.000
499 4 10.973 1.536 6.283 0.006 0.011 0.000 0.000
6438 4 -2.434 -1.731 20.160 0.018 0.006 0.002 0.000
2969 4 8.859 9.150 20.086 0.005 0.006 0.017 0.000
2860 4 13.517 -0.517 18.121 -0.007 -0.014 0.003 0.000
2901 4 10.071 6.558 19.743 0.001 0.004 -0.010 -0.000
177 4 12.083 8.088 -1.532 0.001 -0.009 -0.009 0.000
492 4 3.653 5.757 -1.701 0.004 -0.004 0.004 0.000
19682 4 -4.597 -1.879 -2.086 0.007 -0.007 0.002 0.000
3257 4 6.030 0.568 18.997 0.002 0.006 0.000 -0.000
86 4 -3.579 5.177 -2.579 0.009 0.003 -0.005 0.000
2420 4 11.564 -1.528 19.522 -0.006 -0.004 0.005 0.000
19781 4 13.571 10.673 -3.209 0.002 0.004 0.003 0.000
2481 4 -2.702 3.070 15.471 -0.001 0.007 0.004 0.000
10774 4 6.180 1.395 12.233 -0.003 0.022 -0.005 0.000
2415 4 4.261 0.613 13.968 -0.001 -0.003 -0.001 -0.000
3017 4 6.090 11.575 18.767 0.008 0.020 -0.009 0.000
2417 4 4.417 -1.900 14.869 0.001 0.009 0.003 0.000
2616 4 7.009 12.454 16.934 0.000 -0.004 -0.007 -0.000
841 4 -2.139 -0.785 -1.757 0.002 -0.000 0.006 -0.000
568 4 2.254 7.415 3.221 0.002 -0.015 0.006 0.000
2974 4 4.255 8.906 19.638 0.000 -0.008 -0.001 0.000
451 4 4.718 -2.061 5.240 0.004 -0.003 -0.006 -0.000
1409 4 3.347 12.273 10.673 0.002 -0.011 -0.004 0.000
10775 4 6.350 -0.691 13.416 0.006 0.006 0.000 -0.000
1004 4 -1.978 9.274 -3.534 0.003 -0.000 -0.002 -0.000
207 4 -0.728 10.909 -1.916 0.001 0.008 -0.006 -0.000
47 4 4.168 -2.929 -3.229 -0.001 -0.006 0.005 0.000
1780 4 13.405 9.287 10.061 0.003 0.004 0.007 0.000
2167 4 1.664 11.033 16.794 -0.003 -0.009 0.005 0.000
1617 4 11.720 0.565 9.430 -0.005 -0.003 -0.004 -0.000
3212 4 5.342 -2.283 17.085 0.001 0.000 -0.004 0.000
866 4 12.628 -0.127 11.836 -0.002 0.008 0.013 -0.000
979 4 10.092 11.066 1.209 -0.001 0.003 -0.009 0.000
9182 4 10.846 -3.632 6.951 -0.004 -0.000 -0.003 0.000
11184 4 9.402 -1.880 20.559 -0.008 0.004 0.002 0.000
19814 4 3.358 9.396 -3.735 0.006 -0.015 -0.002 -0.000
9968 4 4.691 0.425 5.041 -0.008 0.001 0.004 0.000
3021 4 13.232 6.238 20.168 0.004 0.010 -0.004 0.000
19763 4 -2.525 7.196 -3.362 0.009 -0.007 -0.005 0.000
175 4 9.774 7.237 -2.343 -0.007 0.003 0.007 -0.000
444 4 1.668 8.672 0.194 -0.009 -0.002 -0.005 0.000
864 4 14.690 -1.236 13.509 0.004 0.010 -0.007 0.000
2082 4 -2.147 4.457 19.900 0.004 0.002 -0.005 0.000
456 4 5.866 -2.490 -0.979 0.012 -0.000 0.004 0.000
9972 4 6.505 -4.027 4.773 0.002 -0.008 -0.008 0.000
1247 4 -0.740 -4.147 1.710 -0.004 0.002 0.000 0.000
19761 4 -3.523 14.380 -4.695 -0.007 -0.011 0.005 0.000
3013 4 11.071 13.883 18.641 0.002 0.003 -0.001 -0.000
2140 4 13.449 9.333 15.202 0.001 0.002 0.005 0.000
1376 4 7.865 12.165 11.646 0.006 0.003 0.002 -0.000
1723 4 -2.990 8.134 9.496 -0.000 -0.013 0.003 -0.000
968 4 4.784 12.577 6.097 0.008 0.001 0.002 0.000
2020 4 14.783 -3.677 8.675 0.003 0.003 -0.013 0.000
49 4 7.461 -1.579 0.818 0.001 0.005 -0.009 -0.000
1649 4 2.658 -0.732 6.164 0.005 -0.003 -0.003 0.000
11574 4 2.864 -1.033 21.274 -0.004 -0.019 0.006 -0.000
1294 4 -4.534 13.302 9.957 -0.006 0.006 -0.000 -0.000
2978 4 11.781 7.007 18.034 0.001 0.003 -0.004 0.000
19688 4 -3.849 5.579 -4.795 -0.000 0.006 0.004 -0.000
1211 4 4.821 -0.735 10.786 -0.005 -0.001 0.006 -0.000
491 4 13.292 -1.873 -1.055 0.015 -0.000 -0.004 0.000
9563 4 -0.622 -4.168 13.933 -0.000 0.006 -0.006 0.000
1209 4 -1.080 -3.008 6.603 -0.013 0.013 -0.005 -0.000
937 4 11.791 3.397 2.812 -0.003 0.017 -0.006 0.000
4520 4 0.672 -1.578 -2.828 -0.000 0.002 -0.011 0.000
1260 4 9.253 -1.501 2.977 0.003 0.011 -0.001 -0.000
610 4 -2.079 13.247 3.416 -0.004 -0.000 0.006 0.000
813 4 11.259 1.451 0.636 -0.009 0.001 0.005 0.000
2652 4 7.009 14.354 15.275 -0.004 0.004 -0.005 0.000
19455 4 8.409 13.918 -4.511 -0.013 -0.004 -0.004 -0.000
1455 4 14.002 12.519 11.803 0.002 -0.009 0.002 0.000
2565 4 -0.921 14.243 19.929 0.000 0.001 -0.006 0.000
63 4 11.487 2.592 -1.869 0.011 0.008 -0.001 -0.000
817 4 8.773 -4.119 6.917 -0.003 0.001 0.001 -0.000
2163 4 -1.942 11.434 15.984 0.004 -0.006 -0.006 -0.000
27937 4 6.697 -1.690 -3.425 0.005 0.003 -0.009 -0.000
534 4 9.839 4.724 -2.153 -0.000 -0.001 -0.001 0.000
19698 4 13.384 0.249 -2.245 -0.005 0.006 0.005 -0.000
1363 4 -1.561 4.476 7.586 0.000 0.004 0.001 0.000
2895 4 12.114 8.816 20.240 -0.002 0.004 0.013 -0.000
19776 4 -1.194 6.800 0.737 0.002 0.002 0.002 0.000
1325 4 2.791 11.587 7.761 0.002 0.011 0.006 -0.000
5796 4 -2.979 14.683 7.246 0.011 -0.007 0.008 0.000
504 4 14.242 4.476 6.663 -0.007 0.005 0.002 0.000
2605 4 0.866 12.555 11.116 0.005 0.001 -0.002 -0.000
1007 4 5.392 12.102 1.089 0.010 -0.000 0.006 0.000
455 4 13.894 8.715 0.195 0.008 -0.000 -0.004 0.000
19732 4 0.514 9.214 -3.223 0.008 -0.006 -0.004 -0.000
19704 4 12.068 -0.854 -4.119 -0.004 0.012 0.007 0.000
407 4 -3.226 1.814 12.712 -0.006 0.008 0.011 0.000
22 4 10.830 0.115 -2.239 0.001 -0.004 -0.008 0.000
3292 4 6.721 8.938 18.873 -0.006 -0.002 0.009 -0.000
55 4 6.424 -3.698 2.190 0.007 -0.011 0.004 -0.000
1740 4 12.073 14.158 12.810 0.006 -0.008 -0.007 -0.000
8784 4 12.500 -0.546 6.070 -0.001 0.006 0.007 0.000
2100 4 13.498 3.600 19.366 0.002 0.007 0.007 0.000
19816 4 3.185 14.010 -2.113 -0.005 -0.002 -0.002 0.000
1606 4 -3.984 -3.233 -4.562 0.000 -0.003 -0.009 -0.000
1613 4 5.360 -4.272 14.076 -0.003 -0.007 -0.008 -0.000
9973 4 10.047 -1.623 14.584 0.003 0.005 -0.001 -0.000
453 4 8.440 2.672 1.987 -0.001 0.005 -0.001 -0.000
19284 4 -2.185 2.037 -1.473 -0.007 0.010 0.007 -0.000
852 4 4.418 2.160 -1.517 0.004 -0.004 0.013 -0.000
881 4 -1.686 3.883 13.373 -0.002 0.007 -0.009 0.000
2448 4 3.326 -3.877 20.850 -0.001 0.002 0.010 -0.000
19423 4 14.202 6.693 -2.363 0.009 0.000 0.005 -0.000
572 4 1.827 13.228 4.982 0.002 0.005 0.003 -0.000
19413 4 -0.105 7.143 -1.712 0.009 -0.003 0.006 -0.000
1365 4 -2.879 9.202 0.848 -0.002 -0.001 -0.011 -0.000
485 4 -4.145 3.092 -0.696 -0.007 0.004 -0.001 -0.000
525 4 -1.182 4.706 -1.252 0.002 0.017 -0.012 -0.000
6117 4 -0.736 5.238 15.356 0.001 0.009 -0.005 0.000
1696 4 8.907 14.372 9.274 0.007 0.003 -0.009 0.000
1382 4 13.603 11.917 9.497 -0.004 0.008 -0.001 0.000
2043 4 -2.363 1.767 20.911 0.005 0.012 0.002 -0.000
143 4 12.569 5.719 1.849 -0.006 0.000 0.007 0.000
1641 4 -2.294 -0.133 13.848 -0.005 0.004 0.004 0.000
1217 4 9.474 -2.907 0.598 0.008 -0.003 0.004 0.000
2886 4 2.722 4.425 20.161 -0.003 -0.002 -0.001 0.000
2609 4 1.183 9.884 18.856 0.001 -0.004 -0.008 0.000
8785 4 12.712 -3.281 5.545 0.007 0.002 0.005 -0.000
103 4 14.538 5.140 0.143 0.004 0.000 -0.006 0.000
19744 4 11.403 3.770 -4.425 0.002 -0.001 -0.001 -0.000
9979 4 9.231 -2.653 17.546 -0.001 -0.008 0.004 -0.000
2219 4 13.813 13.602 20.179 -0.004 -0.011 -0.009 0.000
2456 4 12.771 2.207 14.037 -0.004 0.011 0.006 0.000
9561 4 -4.677 -3.748 7.839 -0.001 -0.009 -0.000 0.000
2168 4 1.659 13.564 17.194 0.005 -0.013 0.012 -0.000
607 4 0.806 13.310 -0.514 -0.010 -0.000 0.009 -0.000
1614 4 9.372 -4.301 9.363 0.005 -0.004 0.002 0.000
11563 4 4.023 -1.537 19.233 -0.006 -0.009 -0.006 0.000
561 4 -3.290 13.835 -0.205 0.005 0.004 0.004 -0.000
9126 4 -3.404 -2.676 6.127 -0.002 0.008 -0.007 0.000
1687 4 0.618 2.460 14.629 0.006 0.002 -0.001 0.000
2124 4 -4.208 6.445 11.607 -0.003 0.007 -0.013 0.000
6598 4 -4.077 9.849 20.646 -0.001 -0.000 -0.001 -0.000
523 4 -2.725 6.795 -0.658 -0.004 -0.004 0.004 -0.000
536 4 8.509 1.367 -3.145 -0.005 -0.006 -0.000 0.000
941 4 12.165 12.853 0.662 0.003 0.002 -0.005 0.000
801 4 -2.165 -0.280 5.186 0.010 -0.002 0.001 0.000
1725 4 -3.324 12.352 13.217 -0.001 0.012 0.002 0.000
215 4 12.745 12.079 -5.463 -0.002 0.005 -0.003 0.000
2130 4 4.977 13.378 13.895 0.001 -0.008 0.005 -0.000
808 4 3.768 -4.124 -0.602 -0.006 0.007 0.007 -0.000
2215 4 14.682 11.054 14.018 0.004 0.001 -0.010 -0.000
2980 4 14.433 10.763 16.839 0.004 0.004 -0.004 -0.000
2856 4 2.431 -0.992 16.110 -0.009 0.008 0.002 -0.000
2946 4 9.869 8.404 18.076 -0.005 0.002 0.003 -0.000
812 4 12.761 -2.140 1.299 0.003 -0.003 -0.006 0.000
566 4 -1.740 9.097 -1.068 0.002 -0.014 -0.005 0.000
8377 4 9.174 -3.582 -3.837 -0.002 0.001 -0.003 -0.000
10361 4 -3.360 -3.817 12.104 0.005 0.005 -0.000 -0.000
59 4 9.663 6.432 -4.564 0.000 0.001 0.002 -0.000
2651 4 -1.660 13.722 14.532 0.005 0.006 -0.007 -0.000
2057 4 14.337 3.739 12.377 -0.013 0.014 -0.005 0.000
2499 4 13.916 8.566 18.500 -0.002 -0.001 0.012 0.000
464 4 13.451 2.681 0.439 -0.001 0.003 -0.012 0.000
1801 4 -0.066 14.513 7.865 0.001 -0.003 0.010 0.000
1406 4 9.431 13.457 13.127 -0.007 -0.005 -0.000 0.000
203 4 -1.040 13.661 -4.413 0.005 -0.001 -0.005 -0.000
11543 4 14.461 -4.443 18.973 -0.002 -0.001 -0.002 -0.000
2002 4 -2.598 -1.583 16.538 0.006 0.002 -0.014 0.000
1604 4 -4.037 -4.460 17.057 0.002 -0.004 -0.006 0.000
3411 4 10.997 10.572 19.643 0.000 -0.009 0.004 0.000
22920 4 -2.444 2.517 -4.860 0.002 -0.005 0.005 -0.000
961 4 -3.557 8.470 4.581 -0.001 -0.003 0.001 0.000
1283 4 -2.258 1.730 8.955 0.004 -0.007 -0.011 0.000
19692 4 6.428 9.377 -4.840 0.002 -0.011 0.003 -0.000
1622 4 15.015 -0.084 15.759 0.014 -0.002 -0.010 0.000
2575 4 13.239 11.475 18.843 -0.009 0.006 -0.007 0.000
6440 4 -3.850 -3.076 18.628 -0.007 -0.001 0.004 -0.000
19385 4 11.928 5.906 -3.077 -0.010 -0.006 -0.000 -0.000
1053 4 9.313 13.379 1.268 -0.008 -0.002 0.005 -0.000
1688 4 -3.883 1.111 6.468 0.012 -0.005 -0.006 -0.000
1009 4 2.890 14.649 7.000 0.001 -0.002 0.019 -0.000
8690 4 11.246 -3.600 -0.293 0.000 -0.004 0.001 -0.000
99 4 13.081 -3.104 -3.848 -0.009 -0.008 -0.015 -0.000
216 4 12.564 8.096 -3.939 -0.005 -0.004 0.019 -0.000
9977 4 13.111 -4.056 11.678 0.010 0.005 -0.004 0.000
8765 4 -0.865 -2.479 -0.679 -0.012 -0.009 -0.004 0.000
122 4 -4.306 6.130 4.430 -0.002 0.008 -0.004 0.000
500 4 14.931 12.457 2.847 0.000 0.006 -0.012 -0.000
5360 4 -4.222 3.341 10.164 0.004 -0.005 -0.010 0.000
167 4 3.887 11.647 -1.922 0.004 -0.005 0.007 0.000
3404 4 -1.193 9.450 20.248 -0.007 -0.003 -0.005 0.000
132 4 -1.863 0.277 -4.460 -0.007 -0.006 0.005 0.000
1807 4 -2.225 13.583 17.591 -0.005 -0.006 0.005 0.000
206 4 1.383 12.365 2.134 0.002 0.000 -0.001 0.000
691 4 10.880 13.784 -3.259 0.003 -0.001 -0.006 -0.000
493 4 6.129 2.143 -3.400 0.006 -0.002 0.003 -0.000
2502 4 12.859 0.236 20.553 -0.005 0.008 -0.004 0.000
1461 4 4.572 13.702 8.928 -0.014 -0.003 0.004 -0.000
503 4 13.298 2.173 6.553 -0.001 0.010 -0.002 0.000
1686 4 -2.938 5.639 9.613 0.005 0.014 0.000 -0.000
1332 4 3.843 14.598 4.880 -0.011 0.001 -0.002 0.000
2015 4 8.122 -4.345 11.284 0.004 -0.003 0.001 0.000
1246 4 -3.889 -1.354 11.987 0.006 0.007 0.011 -0.000
9930 4 0.634 -2.130 5.278 -0.008 0.004 -0.001 0.000
3405 4 -0.331 7.495 19.025 0.002 0.012 -0.000 -0.000
4479 4 -2.870 -0.453 8.027 0.009 0.000 -0.003 -0.000
10738 4 7.146 -2.884 19.110 -0.006 -0.002 -0.005 -0.000
19325 4 0.165 6.370 -4.914 -0.011 -0.010 0.014 -0.000
482 4 -4.065 0.417 -3.601 -0.004 -0.002 -0.005 -0.000
2127 4 -4.290 12.850 15.804 0.010 -0.002 -0.003 0.000
2859 4 4.403 1.239 20.752 -0.007 0.009 -0.002 0.000
1205 4 -4.108 0.649 -1.021 -0.004 0.002 -0.001 0.000
5800 4 -3.080 14.541 11.101 0.003 -0.008 0.001 -0.000
857 4 10.911 -3.276 2.674 0.001 0.007 -0.002 -0.000
2563 4 -2.810 7.447 19.513 -0.004 -0.003 0.001 -0.000
926 4 -4.448 3.248 7.803 -0.002 -0.009 0.004 -0.000
11532 4 1.378 -2.629 18.207 -0.006 -0.004 -0.004 -0.000
417 4 14.249 -4.325 0.072 -0.004 -0.003 -0.002 -0.000
521 4 -3.778 5.001 1.104 -0.010 0.005 -0.007 0.000
221 4 14.293 13.992 -4.597 0.016 -0.004 0.005 -0.000
19304 4 9.174 -1.111 -4.099 0.010 -0.000 0.006 0.000
498 4 3.707 1.685 -3.630 0.000 -0.003 -0.008 0.000
19386 4 10.370 13.031 -5.468 -0.004 -0.005 -0.007 0.000
19699 4 13.683 -4.698 -2.194 0.000 -0.008 0.002 0.000
7276 4 -3.736 -0.383 18.584 -0.002 -0.005 0.008 -0.000
3401 4 0.457 11.516 21.150 -0.002 -0.003 -0.005 0.000
2218 4 5.359 13.856 19.863 -0.001 -0.002 0.003 -0.000