ITEM: TIMESTEP
44000
ITEM: NUMBER OF ATOMS
32000
ITEM: BOX BOUNDS pp pp pp
-5.713703 76.193703
-3.902993 74.382993
-5.789467 76.269467
ITEM: ATOMS id type x y z vx vy vz q
531 4 2.115 8.567 6.866 0.002 0.006 -0.001 -0.000
2528 4 2.504 0.105 15.572 -0.004 -0.007 0.003 0.000
9974 4 -4.797 -3.182 -0.067 -0.004 -0.004 0.002 -0.000
6480 4 -3.489 -1.000 1.180 -0.003 -0.008 0.006 0.000
1282 4 5.567 8.786 10.072 -0.003 -0.010 0.020 0.000
19490 4 0.672 9.050 9.366 0.009 0.003 0.005 -0.000
19217 4 7.440 -0.940 10.065 -0.002 0.006 0.002 -0.000
23469 4 2.156 7.875 0.344 -0.002 -0.001 0.006 0.000
490 4 -1.895 7.552 1.258 -0.006 0.001 0.005 0.000
19282 4 7.308 12.638 1.641 0.013 -0.011 -0.007 -0.000
2126 4 -0.064 9.209 12.140 -0.002 0.006 0.003 -0.000
404 4 0.231 4.883 4.385 -0.008 -0.000 -0.003 -0.000
3307 4 -1.652 0.212 8.272 0.000 0.002 0.002 0.000
526 4 11.297 11.860 9.795 -0.006 0.005 0.011 -0.000
18442 4 8.518 2.445 1.772 -0.007 0.000 0.006 0.000
4517 4 14.030 4.861 1.085 0.002 0.000 0.001 0.000
2007 4 5.278 4.654 14.773 0.000 -0.002 -0.002 -0.000
648 4 6.992 11.191 6.619 -0.006 0.005 -0.006 -0.000
2215 4 7.202 -1.844 1.541 0.001 -0.001 0.016 0.000
10684 4 2.083 -2.111 7.048 0.007 0.000 -0.020 0.000
202 4 8.257 4.780 3.967 0.002 -0.006 -0.008 0.000
844 4 11.186 11.798 5.743 -0.006 0.001 0.001 -0.000
4074 4 8.368 9.659 10.316 -0.007 0.006 -0.003 -0.000
3365 4 0.403 0.394 11.543 -0.008 0.009 -0.012 0.000
13152 4 -2.129 5.137 6.506 0.004 0.017 -0.004 -0.000
13597 4 8.796 2.328 6.669 0.017 0.001 0.010 -0.000
7718 4 6.733 6.946 10.644 0.003 0.013 0.002 0.000
8731 4 11.569 0.269 11.506 -0.004 0.002 -0.011 0.000
18934 4 3.990 4.763 -1.643 0.006 -0.007 -0.004 0.000
6029 4 5.215 4.545 9.931 -0.006 -0.001 0.008 0.000
12360 4 1.074 2.901 -2.316 -0.004 0.001 0.000 -0.000
18852 4 9.927 6.514 2.282 -0.002 -0.007 0.002 0.000
894 4 4.391 2.163 8.555 -0.006 0.003 -0.008 -0.000
2981 4 -2.293 9.505 8.921 -0.001 -0.007 -0.001 -0.000
6589 4 0.323 8.764 19.061 -0.004 -0.004 -0.006 -0.000
614 4 3.829 7.373 5.005 0.007 0.002 0.002 -0.000
10296 4 3.950 14.280 13.808 0.002 0.005 -0.000 -0.000
4480 4 2.870 6.302 13.835 -0.001 0.012 0.011 0.000
2093 4 5.576 12.060 12.653 -0.000 0.006 -0.005 0.000
19782 4 7.448 9.925 4.675 -0.008 0.004 0.006 0.000
23396 4 3.312 8.221 9.408 0.002 -0.005 0.017 0.000
201 4 8.997 2.468 4.101 0.004 0.006 0.007 -0.000
1777 4 13.585 8.837 7.954 0.000 -0.004 0.008 0.000
217 4 1.416 6.239 8.956 0.010 0.003 -0.010 -0.000
27169 4 1.413 4.828 0.049 0.001 0.014 0.005 0.000
173 4 8.546 4.592 6.393 0.009 0.004 -0.001 -0.000
539 4 13.305 7.904 5.223 0.011 0.009 0.004 0.000
855 4 8.586 5.331 8.881 0.003 -0.004 0.001 0.000
3048 4 1.522 14.029 12.340 -0.003 0.006 -0.007 0.000
5473 4 -2.231 9.755 3.272 -0.006 -0.005 0.004 -0.000
3830 4 10.480 4.075 11.413 -0.000 -0.002 0.001 0.000
2647 4 6.557 6.627 5.750 0.006 0.004 0.003 -0.000
1364 4 9.748 5.929 13.184 0.000 -0.000 0.010 0.000
8326 4 4.258 1.243 11.476 0.007 0.002 -0.002 -0.000
424 4 11.053 -2.655 6.725 -0.008 -0.011 -0.003 -0.000
12396 4 7.323 14.138 13.345 -0.001 0.004 0.002 -0.000
27579 4 2.702 5.036 5.116 -0.001 0.001 0.007 -0.000
16513 4 11.380 8.320 7.114 0.000 -0.007 -0.000 -0.000
19376 4 4.305 4.939 1.060 -0.002 -0.004 0.001 0.000
3435 4 -3.037 7.329 6.828 0.002 -0.006 -0.003 -0.000
2422 4 9.740 10.846 12.081 0.001 0.013 -0.002 -0.000
13116 4 5.809 8.541 17.571 -0.013 -0.011 -0.001 0.000
9886 4 1.244 7.772 14.796 -0.004 -0.002 0.005 0.000
4313 4 4.633 9.713 4.304 -0.007 -0.001 -0.002 -0.000
7019 4 1.741 11.923 19.957 -0.000 0.010 -0.005 0.000
1443 4 -0.973 7.266 7.990 -0.006 0.016 -0.011 -0.000
16555 4 13.030 5.636 7.752 -0.006 -0.004 -0.007 -0.000
2124 4 6.012 12.707 17.255 -0.015 -0.012 -0.011 0.000
5068 4 8.279 13.983 15.693 -0.010 -0.006 -0.001 0.000
6550 4 8.473 0.064 5.380 0.005 -0.000 0.008 -0.000
6154 4 0.865 5.503 6.754 0.005 0.002 -0.002 -0.000
6673 4 2.260 10.970 6.064 -0.004 -0.001 -0.005 0.000
178 4 5.808 5.672 12.504 0.005 -0.005 0.007 0.000
1216 4 6.139 2.637 2.748 -0.006 0.001 0.003 0.000
5267 4 1.934 2.827 15.510 0.003 -0.007 -0.002 -0.000
27566 4 0.383 8.674 3.058 -0.009 -0.001 0.008 -0.000
18496 4 3.118 8.258 2.374 0.001 0.002 -0.009 -0.000
447 4 4.947 0.497 4.068 0.001 -0.006 0.007 0.000
15594 4 -1.293 5.391 10.988 -0.003 0.002 -0.004 0.000
19223 4 -0.827 11.223 4.874 0.002 -0.002 -0.004 0.000
1206 4 12.754 6.395 15.809 0.010 -0.008 -0.006 0.000
3246 4 3.167 13.278 7.579 -0.008 0.008 0.000 0.000
8682 4 4.411 10.572 11.258 -0.002 -0.007 -0.005 0.000
9164 4 11.648 4.589 0.284 0.001 -0.003 0.005 0.000
7471 4 4.417 10.737 17.854 0.006 -0.004 0.002 0.000
16043 4 6.643 -1.660 12.113 -0.003 0.005 -0.009 -0.000
19309 4 -2.184 2.878 1.446 -0.001 -0.001 -0.005 0.000
11888 4 13.396 9.363 15.836 -0.001 0.009 0.004 0.000
1643 4 2.868 -0.167 9.042 0.000 0.000 -0.002 -0.000
6911 4 7.204 6.236 16.982 -0.003 0.001 0.001 -0.000
46 4 -4.184 4.815 12.196 0.011 0.011 0.005 0.000
81 4 -3.862 10.902 16.130 -0.001 0.005 -0.007 -0.000
1098 4 -3.861 5.576 1.124 -0.005 -0.003 0.004 0.000
5674 4 2.652 8.636 12.485 -0.001 -0.000 0.003 0.000
2221 4 -0.689 2.754 11.993 0.000 0.000 0.002 0.000
19645 4 12.067 1.810 6.117 -0.004 -0.006 -0.001 -0.000
487 4 6.050 13.508 7.432 -0.009 0.012 -0.009 0.000
19699 4 13.563 3.568 7.133 0.007 -0.007 0.007 -0.000
18845 4 3.054 11.714 13.880 0.003 0.003 0.004 0.000
6987 4 6.276 3.916 19.289 -0.001 -0.002 0.010 -0.000
10698 4 4.167 -0.345 20.300 -0.001 0.009 0.002 -0.000
19244 4 10.892 1.363 3.044 -0.006 0.006 -0.004 0.000
1404 4 9.562 9.843 7.944 0.010 0.004 0.010 -0.000
4428 4 11.553 -1.771 -2.552 -0.008 0.002 0.008 0.000
18861 4 10.386 3.800 2.164 0.001 -0.005 -0.009 -0.000
6913 4 12.162 7.514 11.209 0.006 0.008 -0.003 0.000
6470 4 9.443 0.845 17.083 0.004 0.002 -0.001 0.000
23478 4 9.079 10.255 14.875 -0.002 0.003 -0.000 -0.000
19656 4 10.663 9.780 -2.956 -0.001 0.010 -0.003 -0.000
1276 4 9.074 7.717 -0.473 -0.001 0.008 0.003 -0.000
3362 4 8.154 7.837 19.929 0.008 -0.007 0.005 -0.000
1251 4 6.970 3.717 13.373 -0.012 0.002 -0.006 0.000
2857 4 -1.093 7.504 10.477 0.002 0.007 -0.001 -0.000
2516 4 6.327 11.497 10.251 0.001 -0.003 0.002 -0.000
11147 4 5.471 -0.278 15.426 -0.005 -0.000 -0.000 -0.000
5387 4 3.283 4.824 16.318 -0.007 -0.003 -0.002 -0.000
19806 4 9.294 9.989 -0.613 -0.002 0.008 0.011 -0.000
2118 4 4.182 2.415 14.014 0.000 0.005 -0.002 0.000
2729 4 1.962 10.661 10.446 0.005 0.001 -0.006 0.000
11066 4 11.538 -1.639 13.405 -0.002 -0.006 -0.002 0.000
2414 4 3.028 8.588 18.289 -0.003 -0.000 0.017 0.000
3085 4 7.798 4.490 10.892 0.003 0.007 -0.009 0.000
7474 4 0.267 3.442 2.044 -0.002 0.000 -0.001 0.000
1293 4 2.283 10.437 3.669 0.002 -0.003 -0.003 -0.000
150 4 6.335 1.079 6.373 0.002 0.006 -0.007 -0.000
6239 4 11.476 10.843 14.280 -0.006 -0.005 -0.005 0.000
10322 4 3.257 -2.446 13.940 0.002 -0.008 -0.017 0.000
13513 4 0.979 4.351 10.454 0.002 -0.006 0.010 -0.000
10282 4 10.782 6.149 4.914 -0.002 0.001 0.003 -0.000
9970 4 3.397 7.507 16.188 -0.010 -0.010 -0.012 0.000
926 4 7.440 -1.758 16.837 0.014 -0.003 0.001 -0.000
8364 4 10.222 0.439 -1.478 0.000 -0.013 -0.011 0.000
2668 4 10.298 12.465 0.802 0.008 0.003 0.001 -0.000
7787 4 -1.767 7.146 3.959 0.008 -0.008 0.011 -0.000
9052 4 -1.994 0.841 -0.110 -0.004 0.011 -0.005 0.000
14345 4 6.264 0.695 12.723 0.006 -0.007 -0.010 0.000
6833 4 3.504 3.964 18.892 0.009 -0.004 -0.005 -0.000
4073 4 2.536 2.777 0.090 -0.003 -0.002 -0.005 0.000
899 4 6.584 1.948 14.905 0.008 0.002 -0.006 0.000
18858 4 7.148 6.748 0.883 -0.010 -0.003 0.003 0.000
4640 4 -0.860 10.128 1.058 -0.001 0.010 0.012 -0.000
27962 4 8.237 7.523 3.825 0.004 -0.009 -0.010 -0.000
815 4 5.595 7.115 14.968 -0.002 0.011 -0.001 -0.000
5755 4 1.002 0.775 -1.773 0.004 0.002 -0.003 -0.000
2531 4 4.843 11.692 5.950 0.007 0.002 -0.011 0.000
13958 4 1.981 0.273 2.618 -0.011 -0.001 0.000 0.000
846 4 11.567 3.868 8.740 -0.004 0.014 -0.002 -0.000
281 4 6.858 -1.381 4.209 0.007 -0.009 -0.005 0.000
4558 4 8.828 12.509 10.374 0.001 0.002 0.013 -0.000
3468 4 7.352 9.928 12.318 -0.001 -0.001 -0.001 -0.000
174 4 -1.998 12.603 0.468 0.002 -0.008 -0.004 0.000
12752 4 5.593 6.630 8.326 0.002 -0.010 -0.003 0.000
777 4 1.960 10.570 -1.905 0.013 -0.007 -0.001 -0.000
20276 4 5.486 -3.239 14.461 0.003 -0.003 -0.013 -0.000
5709 4 3.541 6.722 7.496 -0.012 0.002 0.006 -0.000
27522 4 8.855 7.129 6.530 -0.002 0.000 0.019 -0.000
16548 4 -1.367 13.898 -1.464 -0.012 0.011 -0.008 0.000
251 4 10.081 3.210 -0.962 -0.005 0.001 0.005 0.000
2524 4 -3.829 3.162 5.879 -0.006 0.005 0.010 0.000
16122 4 6.922 10.718 16.665 0.004 0.002 -0.001 0.000
4440 4 1.900 2.520 8.240 -0.011 0.006 -0.019 -0.000
3429 4 6.545 14.689 4.998 0.003 0.004 0.000 0.000
2179 4 9.679 8.891 4.825 0.001 0.007 0.014 -0.000
5760 4 -1.087 8.514 5.648 -0.004 0.003 0.006 -0.000
19734 4 3.622 1.920 -2.334 -0.008 0.004 -0.002 -0.000
1614 4 7.913 5.618 14.734 0.002 -0.012 -0.007 0.000
1291 4 6.181 1.346 10.338 -0.011 0.005 -0.005 -0.000
403 4 12.541 -2.259 9.236 0.002 0.006 0.001 0.000
3420 4 14.138 7.814 13.608 -0.008 -0.001 0.007 0.000
10758 4 7.250 9.194 14.742 0.002 -0.007 0.000 0.000
17209 4 5.315 2.834 0.215 -0.012 -0.001 0.002 0.000
19801 4 0.544 4.285 13.740 -0.005 -0.003 0.001 -0.000
11568 4 4.892 10.057 15.163 -0.014 0.001 0.002 0.000
14714 4 -0.141 3.324 6.455 0.004 -0.001 0.002 -0.000
6274 4 1.207 8.516 -2.072 -0.004 0.004 0.010 -0.000
9685 4 2.829 10.740 1.410 -0.002 0.001 0.004 -0.000
9946 4 10.558 -1.176 18.723 -0.007 0.017 -0.001 -0.000
7065 4 0.288 11.705 2.854 -0.004 0.000 -0.002 0.000
421 4 4.748 -1.128 10.983 -0.002 -0.004 -0.006 -0.000
19613 4 12.025 7.724 -0.646 -0.001 0.009 -0.005 0.000
9137 4 9.643 3.555 14.282 -0.002 0.012 -0.000 0.000
19353 4 7.661 9.844 -2.701 0.005 0.004 0.005 -0.000
503 4 7.990 0.905 8.143 0.000 -0.001 -0.012 -0.000
810 4 10.738 4.499 18.968 -0.008 -0.008 0.004 0.000
27123 4 -3.437 0.701 3.282 -0.004 0.002 0.001 0.000
41 4 9.740 7.239 10.886 -0.009 0.004 0.006 -0.000
3271 4 6.664 3.220 5.473 0.004 0.004 -0.008 -0.000
1240 4 8.695 9.347 2.389 -0.005 0.002 0.003 0.000
6877 4 -0.725 11.188 10.242 -0.001 0.001 0.000 -0.000
847 4 4.963 9.196 6.968 0.001 0.001 0.006 0.000
406 4 9.692 11.935 -4.098 -0.010 -0.003 0.000 -0.000
9486 4 -0.981 13.848 10.244 -0.002 -0.001 0.001 -0.000
27130 4 6.987 3.222 8.315 -0.010 -0.011 0.008 -0.000
19737 4 2.085 12.990 2.013 0.004 0.000 0.002 -0.000
5000 4 0.340 12.797 6.350 -0.011 0.005 0.007 0.000
5838 4 9.931 12.819 13.930 -0.008 0.011 -0.004 0.000
11139 4 9.909 0.608 13.932 -0.007 0.002 -0.006 0.000
17820 4 5.665 8.484 -2.176 0.001 -0.004 0.006 -0.000
13075 4 5.510 7.009 2.942 0.006 0.003 -0.003 0.000
14716 4 13.035 0.118 4.668 0.006 0.002 -0.004 0.000
214 4 1.305 0.417 6.893 0.001 -0.006 0.007 -0.000
1369 4 12.702 3.255 20.135 0.006 -0.010 0.000 0.000
8698 4 5.014 2.155 18.666 0.008 0.001 -0.003 -0.000
4353 4 6.808 8.888 -0.265 0.006 0.004 -0.006 0.000
1708 4 11.856 9.971 -0.413 0.000 0.004 -0.007 -0.000
7415 4 4.072 12.917 20.975 0.003 0.004 -0.002 -0.000
2909 4 7.977 -0.536 14.497 0.000 0.005 0.001 0.000
9921 4 4.573 7.292 0.360 -0.003 0.006 -0.000 0.000
2462 4 4.773 6.526 19.418 -0.003 0.000 -0.003 -0.000
10657 4 5.052 7.992 12.805 0.002 0.002 0.004 -0.000
6139 4 7.582 -3.608 18.934 -0.008 0.000 -0.009 -0.000
3286 4 2.320 6.116 19.007 -0.010 -0.011 0.011 -0.000
3134 4 1.603 1.290 13.351 -0.001 -0.012 0.004 -0.000
1692 4 -1.472 1.213 -4.734 -0.003 0.003 -0.002 -0.000
22878 4 2.555 5.777 2.575 0.002 -0.000 -0.008 0.000
3217 4 13.012 2.873 2.350 0.002 0.001 -0.014 0.000
19887 4 4.988 4.586 3.782 0.002 0.007 0.000 0.000
4078 4 3.880 6.398 10.954 -0.002 -0.003 -0.006 0.000
18510 4 9.667 5.870 -2.379 -0.001 -0.010 0.001 0.000
13997 4 -0.201 1.709 9.446 0.007 -0.012 0.000 0.000
4910 4 -1.366 2.489 -2.138 0.002 0.000 -0.005 -0.000
13594 4 4.403 2.060 16.293 -0.004 0.001 -0.008 -0.000
19281 4 -3.584 -0.102 -4.734 -0.004 0.002 0.001 -0.000
7837 4 8.534 8.970 17.271 -0.011 -0.008 -0.001 -0.000
19682 4 5.475 0.726 -4.587 0.001 0.001 -0.007 0.000
3010 4 6.868 4.511 2.117 0.005 0.003 0.009 0.000
5020 4 4.597 2.690 5.747 -0.000 0.012 -0.009 -0.000
2832 4 8.164 5.545 18.947 -0.004 0.001 0.002 0.000
1651 4 -1.033 1.133 2.680 -0.006 0.009 0.001 0.000
5357 4 -0.124 2.498 -0.144 0.003 0.004 0.011 0.000
2412 4 -2.252 10.238 20.475 -0.020 -0.001 -0.009 -0.000
8374 4 5.780 0.440 -1.532 0.003 0.006 0.001 -0.000
55 4 9.350 12.347 7.737 0.005 0.010 0.009 -0.000
9924 4 0.070 6.825 -0.574 -0.012 -0.002 -0.003 0.000
2108 4 9.200 7.650 15.056 0.007 -0.015 -0.009 -0.000
4995 4 3.452 15.238 10.413 0.005 0.006 -0.000 0.000
5739 4 3.551 10.763 8.506 0.009 -0.003 0.016 0.000
164 4 -2.993 9.799 6.396 -0.002 -0.003 -0.001 -0.000
1249 4 8.722 4.864 0.334 0.000 -0.007 0.008 0.000
24233 4 12.645 0.460 19.833 0.004 0.000 -0.005 -0.000
1046 4 10.870 14.126 9.554 -0.010 -0.011 0.001 -0.000
1331 4 1.043 4.487 21.082 0.008 0.011 0.009 -0.000
163 4 1.237 2.245 4.507 -0.014 -0.001 0.008 0.000
2208 4 -2.420 7.317 18.994 0.005 0.001 0.001 0.000
27247 4 3.068 0.089 -0.402 0.002 -0.003 0.000 -0.000
2066 4 10.638 6.933 18.916 0.005 0.001 -0.002 0.000
26705 4 9.103 11.875 3.892 -0.010 -0.002 0.005 0.000
168 4 2.230 12.876 4.611 0.004 0.006 0.007 -0.000
13194 4 4.169 12.739 9.967 0.006 -0.000 -0.000 0.000
892 4 4.095 14.091 5.183 -0.009 0.003 0.006 -0.000
18822 4 9.313 2.055 -3.094 -0.002 0.004 -0.002 0.000
19096 4 -0.182 3.408 -4.378 0.004 0.003 0.008 -0.000
7159 4 13.745 12.501 4.528 -0.002 -0.001 -0.010 -0.000
19488 4 -3.296 3.901 -0.770 -0.005 -0.006 -0.006 0.000
22510 4 1.973 1.527 -4.376 0.013 -0.001 -0.001 0.000
9933 4 -0.292 13.949 1.453 0.006 0.002 -0.003 -0.000
6583 4 3.223 4.313 9.108 0.002 -0.001 0.015 -0.000
2526 4 -1.351 12.053 19.226 -0.010 -0.000 0.008 -0.000
13180 4 -3.015 5.200 8.843 0.005 0.004 0.003 0.000
13143 4 2.107 1.580 10.294 0.002 -0.000 -0.001 0.000
31994 4 -4.567 -2.960 -2.918 -0.013 -0.008 -0.005 -0.000
5516 4 1.435 7.204 4.517 0.003 0.007 -0.006 -0.000
2339 4 7.126 11.643 -0.449 0.003 0.001 -0.004 0.000
6063 4 0.221 5.222 -2.509 0.005 0.010 -0.001 -0.000
1723 4 6.614 10.034 19.339 -0.005 0.011 -0.015 -0.000
4839 4 -0.341 9.299 16.140 0.001 -0.005 -0.003 0.000
982 4 11.141 12.409 -1.409 0.010 -0.000 -0.007 -0.000
2928 4 12.648 13.046 12.951 -0.002 -0.007 0.004 -0.000
8324 4 3.896 -0.742 -2.848 -0.003 -0.001 -0.008 -0.000
161 4 -3.859 0.974 9.309 -0.003 0.004 0.007 0.000
1829 4 4.591 12.471 0.058 -0.011 -0.003 0.002 0.000
27574 4 0.569 0.142 0.573 -0.001 0.012 0.004 0.000
1135 4 -5.051 6.350 -3.717 -0.002 0.003 0.001 0.000
488 4 -5.606 9.424 2.005 -0.005 -0.001 0.005 -0.000
14351 4 -2.300 2.648 14.440 0.004 -0.012 0.000 -0.000
27333 4 6.010 -1.677 -2.727 0.010 -0.004 -0.010 0.000
4232 4 1.840 13.966 -0.505 0.004 0.000 0.014 0.000
12797 4 -1.106 -1.584 2.244 -0.009 -0.002 -0.001 -0.000
7384 4 -1.600 5.134 13.226 -0.005 0.002 -0.001 -0.000
223 4 8.551 14.640 8.339 0.002 -0.000 -0.009 -0.000
2092 4 11.799 14.491 14.974 0.006 -0.001 0.009 -0.000
27578 4 12.238 5.035 3.252 0.013 -0.000 0.004 0.000
22875 4 4.478 0.932 1.725 0.007 0.006 -0.005 -0.000
4955 4 -1.029 11.644 15.951 -0.011 -0.001 0.007 -0.000
13115 4 5.853 -1.851 18.979 0.000 -0.001 -0.000 -0.000
5839 4 -0.489 11.366 12.733 -0.010 0.002 0.005 -0.000
14269 4 -4.524 4.048 15.191 0.008 -0.005 -0.009 0.000
9535 4 -2.158 8.613 -4.495 0.001 0.007 0.009 0.000
20152 4 3.845 -0.003 18.162 -0.006 0.015 -0.003 -0.000
2201 4 -0.086 1.096 15.248 0.005 -0.008 -0.004 0.000
492 4 3.037 10.158 -4.096 -0.000 -0.003 0.002 -0.000
1944 4 7.357 12.300 -3.633 0.001 0.002 -0.002 -0.000
2449 4 1.516 -2.882 15.478 0.001 0.001 -0.009 0.000
11552 4 9.607 8.673 12.756 -0.010 0.005 0.001 0.000
7272 4 6.320 14.148 11.339 -0.001 -0.004 0.007 0.000
20563 4 12.408 5.727 20.730 0.003 -0.006 0.007 0.000
9583 4 7.259 7.117 -2.159 0.001 0.002 0.010 0.000
528 4 10.942 9.422 10.454 0.003 -0.008 -0.003 -0.000
4557 4 11.696 14.313 5.112 -0.004 0.006 -0.003 -0.000
14188 4 0.220 9.972 7.141 -0.001 -0.016 0.006 -0.000
5627 4 -2.404 -2.383 9.486 0.001 0.005 -0.006 0.000
3006 4 3.616 12.732 16.537 0.007 -0.002 -0.013 0.000
6539 4 2.376 10.183 16.098 0.002 -0.007 0.009 0.000
19264 4 4.237 12.023 3.046 -0.003 -0.001 0.009 -0.000
4318 4 -4.355 10.489 4.125 -0.006 -0.006 0.004 0.000
19814 4 7.700 -0.970 -1.204 -0.014 0.004 -0.004 -0.000
5315 4 5.448 12.354 15.062 0.003 -0.006 -0.003 0.000
6872 4 4.407 3.620 -4.159 -0.002 -0.004 -0.000 -0.000
2174 4 14.130 9.144 -1.771 0.015 0.011 -0.007 -0.000
9962 4 0.644 -0.006 17.464 -0.005 -0.005 0.002 -0.000
5335 4 -3.537 7.268 10.569 0.006 0.007 -0.004 0.000
1652 4 12.449 11.668 -3.949 -0.001 0.000 -0.002 0.000
6996 4 5.434 4.535 17.305 -0.009 -0.004 0.008 -0.000
1284 4 3.828 4.871 21.110 0.005 -0.001 0.013 -0.000
3082 4 12.231 12.889 1.146 -0.000 -0.005 0.004 -0.000
7542 4 -2.330 5.467 17.577 -0.003 -0.002 -0.005 0.000
23957 4 -3.507 14.649 0.446 -0.003 -0.010 0.006 -0.000
1736 4 6.505 12.136 4.193 -0.001 0.003 0.018 0.000
944 4 6.531 4.844 -0.543 0.003 -0.005 0.001 0.000
16209 4 -1.570 -2.782 17.879 -0.012 -0.007 0.003 0.000
18523 4 -3.432 6.264 -0.958 -0.009 -0.002 -0.002 0.000
2652 4 12.844 14.619 -1.907 -0.004 0.002 -0.014 0.000
13916 4 0.258 6.053 1.793 0.009 -0.001 -0.005 -0.000
5759 4 2.321 9.422 20.207 0.002 0.001 0.005 -0.000
15584 4 -1.494 0.500 13.333 -0.006 0.012 0.005 0.000
2046 4 -1.380 6.962 16.145 0.001 0.005 -0.010 -0.000
641 4 -4.297 7.495 2.936 -0.010 -0.007 0.002 -0.000
24378 4 1.210 7.295 17.050 0.003 0.001 0.008 0.000
17489 4 3.624 14.003 18.711 -0.009 -0.004 -0.005 -0.000
2948 4 13.106 5.166 17.812 -0.006 -0.001 -0.010 0.000
6923 4 7.493 7.363 13.155 0.002 -0.009 0.002 -0.000
6953 4 0.182 -0.601 -3.878 0.003 -0.003 0.005 -0.000
5227 4 -3.042 3.290 10.404 0.003 0.008 -0.003 0.000
3642 4 8.575 2.884 18.985 0.011 0.009 -0.000 0.000
8725 4 8.112 -0.373 18.700 0.009 -0.008 -0.002 0.000
1760 4 13.471 11.684 -1.055 -0.007 -0.001 -0.008 -0.000
10064 4 -4.085 10.280 -3.104 -0.014 0.010 0.003 0.000
6463 4 -0.865 -1.767 11.368 0.000 -0.001 0.001 0.000
2631 4 10.949 9.197 16.046 0.000 0.007 -0.001 0.000
785 4 -1.303 5.005 -0.060 -0.002 0.005 -0.000 0.000
6921 4 8.582 13.828 5.597 -0.004 -0.013 0.010 0.000
18965 4 5.895 5.081 -3.859 -0.007 0.005 0.007 -0.000
2401 4 -1.201 3.458 18.365 0.005 0.002 0.007 0.000
6959 4 -2.281 9.561 14.717 0.000 -0.002 -0.005 -0.000
2579 4 6.347 10.356 2.491 -0.002 0.004 0.001 0.000
13111 4 9.458 -1.290 11.782 0.006 0.003 0.012 0.000
1667 4 11.611 9.721 18.457 0.004 -0.003 0.011 0.000
3143 4 -0.394 5.998 19.202 -0.013 -0.015 0.000 -0.000
20478 4 2.634 3.372 12.006 -0.000 -0.003 -0.010 0.000
4091 4 0.606 6.445 12.322 0.000 0.006 -0.004 -0.000
8695 4 8.814 -0.089 1.040 -0.004 0.001 -0.012 0.000
525 4 12.716 5.312 10.854 -0.001 -0.017 -0.005 0.000
292 4 -1.992 12.716 -3.958 0.000 -0.007 -0.009 -0.000
2535 4 14.681 -2.818 17.971 0.007 0.000 0.006 -0.000
4556 4 6.787 0.991 17.391 -0.008 -0.005 0.010 0.000
9097 4 -0.533 4.473 8.607 0.001 0.010 -0.003 -0.000
6158 4 0.414 -1.713 13.851 0.004 0.008 0.002 0.000
3203 4 11.760 8.602 13.605 0.007 0.008 -0.009 0.000
5221 4 3.915 -0.165 13.370 0.004 0.001 -0.004 -0.000
7305 4 -1.922 0.851 10.838 0.010 0.008 -0.003 0.000
3722 4 -2.510 4.712 -3.126 -0.003 0.009 0.008 -0.000
8784 4 1.220 15.358 2.981 -0.002 0.006 -0.000 -0.000
23506 4 -1.859 9.283 -2.148 -0.008 -0.006 -0.005 -0.000
5235 4 -1.043 3.568 15.879 0.003 -0.002 0.003 -0.000
16650 4 0.714 11.199 18.221 -0.003 -0.006 0.008 -0.000
19785 4 -5.176 3.796 8.270 -0.007 -0.005 -0.009 0.000
4956 4 -5.335 1.290 6.726 0.003 0.004 -0.006 -0.000
1367 4 -1.729 1.115 17.119 0.007 -0.001 0.001 0.000
4610 4 1.147 4.229 17.694 0.006 -0.004 0.001 -0.000
9565 4 8.047 11.987 18.660 0.006 -0.003 -0.001 -0.000
2133 4 4.000 0.070 6.660 -0.004 -0.001 0.007 -0.000
1408 4 8.193 14.098 -0.090 0.010 0.001 -0.004 0.000
8635 4 8.107 1.754 -1.068 -0.003 0.007 -0.014 -0.000
5676 4 -2.908 12.456 3.031 -0.001 -0.001 0.005 0.000
2458 4 9.279 -2.002 20.993 -0.007 0.001 0.005 0.000
27926 4 0.598 -1.250 9.168 -0.000 0.000 0.001 -0.000
14359 4 10.736 1.443 8.990 -0.001 -0.003 0.001 -0.000
1704 4 -1.753 0.219 -2.468 -0.001 -0.002 -0.010 -0.000
5757 4 3.443 2.904 2.552 0.003 0.001 0.004 0.000
8644 4 8.990 0.987 10.846 -0.001 0.010 0.004 0.000
2563 4 1.008 5.489 15.915 -0.002 -0.006 -0.002 -0.000
7312 4 -2.324 4.946 20.543 -0.004 0.005 -0.004 0.000
9525 4 -2.290 -1.710 6.347 -0.003 -0.000 -0.015 -0.000
4829 4 -3.454 12.515 -1.587 -0.008 -0.002 0.008 -0.000
613 4 -0.712 11.425 -1.265 0.002 -0.001 -0.009 -0.000
11454 4 -3.491 13.553 5.611 0.009 0.002 -0.016 0.000
1646 4 12.735 0.436 8.162 -0.007 0.007 0.006 -0.000
10727 4 -1.242 -1.029 15.429 0.006 -0.004 -0.006 -0.000
7277 4 -0.526 0.952 5.561 -0.010 -0.004 0.001 0.000
2977 4 8.399 4.124 16.911 -0.000 -0.001 -0.010 0.000
1973 4 -1.648 11.904 7.756 -0.003 0.000 0.006 0.000
7376 4 -4.433 8.879 19.677 -0.000 -0.010 -0.003 -0.000
410 4 9.111 -2.397 -3.460 0.002 0.002 0.001 -0.000
3256 4 -2.350 9.509 17.699 -0.004 -0.003 0.011 -0.000
2251 4 0.912 10.468 14.655 -0.000 -0.002 -0.000 -0.000
19009 4 8.780 12.165 -1.712 0.004 0.003 -0.003 -0.000
4436 4 2.432 -1.286 4.908 0.002 0.007 0.005 0.000
25166 4 1.723 11.815 -5.427 0.006 0.004 -0.011 -0.000
6824 4 0.808 12.466 8.732 0.007 0.008 -0.006 0.000
580 4 12.062 10.804 7.825 -0.004 -0.002 -0.000 -0.000
7878 4 -2.840 12.317 11.881 0.006 -0.000 0.003 -0.000
12720 4 6.553 0.542 0.715 -0.003 -0.001 0.010 0.000
6353 4 8.460 14.191 3.367 -0.001 0.011 -0.004 -0.000
4432 4 -1.567 3.151 4.366 -0.008 -0.003 -0.001 -0.000
5723 4 10.540 0.068 6.962 -0.007 -0.004 0.003 -0.000
9577 4 12.304 5.547 13.496 0.004 0.001 0.001 0.000
19224 4 11.731 13.718 -4.023 -0.009 -0.004 -0.003 -0.000
16004 4 2.368 -1.057 11.628 -0.003 -0.004 0.016 0.000
3739 4 13.437 1.981 18.146 0.001 -0.004 -0.015 -0.000
8004 4 11.648 2.317 -3.188 0.008 -0.000 -0.002 0.000
42 4 -1.449 7.824 21.447 0.002 -0.001 0.001 -0.000
18969 4 7.182 14.355 -2.329 0.005 0.000 0.002 0.000
1743 4 10.697 7.737 -4.443 -0.003 0.001 0.015 0.000
2265 4 10.761 3.647 5.023 0.003 0.009 0.004 -0.000
1871 4 10.471 14.129 12.152 0.003 0.006 0.007 -0.000
2650 4 -3.405 14.638 10.834 0.001 0.006 0.000 0.000
1004 4 10.489 -1.615 0.039 -0.011 -0.001 0.010 -0.000
9058 4 -3.827 1.833 -2.406 -0.004 -0.003 -0.004 0.000
138 4 14.132 -0.201 -4.533 0.001 -0.003 -0.003 0.000
1012 4 3.925 -1.821 3.061 0.012 0.003 -0.007 0.000
22876 4 -2.247 -2.495 -3.376 -0.004 -0.006 0.009 0.000
494 4 8.474 -1.502 7.357 0.003 0.006 -0.004 -0.000
489 4 5.744 9.857 -4.815 0.001 -0.007 0.006 -0.000
2087 4 8.159 4.242 -2.242 -0.004 -0.005 -0.010 0.000
12786 4 -4.429 2.078 0.872 -0.002 -0.005 0.011 0.000
19701 4 11.844 -2.072 -5.195 0.007 0.002 -0.003 0.000
203 4 10.843 10.183 2.175 -0.007 -0.007 -0.005 -0.000
5372 4 -1.057 13.962 3.806 0.002 -0.011 0.000 0.000
19267 4 4.305 13.997 -2.126 0.002 -0.002 -0.001 0.000
3774 4 13.285 7.948 17.602 -0.012 -0.006 0.002 0.000
7342 4 -2.289 1.586 19.855 0.005 -0.002 -0.005 0.000
1295 4 11.660 1.643 0.437 -0.001 0.008 -0.002 0.000
16764 4 -3.065 9.344 11.429 0.001 0.009 -0.003 -0.000
5320 4 -4.698 -1.402 10.414 -0.006 -0.000 0.005 0.000
17012 4 -3.528 13.841 19.205 -0.006 -0.002 0.006 -0.000
9126 4 13.137 -2.179 14.858 0.001 -0.011 -0.008 -0.000
6067 4 -1.867 7.516 12.615 -0.001 0.006 -0.004 -0.000
6224 4 1.193 13.243 14.955 0.001 0.004 -0.001 -0.000
20542 4 -5.278 9.830 17.683 -0.004 -0.000 -0.002 -0.000
8714 4 6.253 2.637 -2.594 0.000 -0.001 -0.002 -0.000
11555 4 9.119 9.983 19.629 0.015 -0.014 0.004 -0.000
16208 4 13.122 13.420 18.277 -0.004 -0.002 -0.003 -0.000
9053 4 -2.564 2.898 7.916 0.002 0.004 -0.003 0.000
18449 4 8.308 -0.099 -3.783 0.003 0.001 0.005 0.000
24395 4 13.103 -0.750 17.254 0.006 0.006 0.001 -0.000
18447 4 6.493 7.538 -5.609 -0.001 -0.000 -0.000 -0.000
1657 4 13.005 0.887 13.550 -0.011 0.005 -0.002 -0.000
19704 4 11.602 -2.797 4.053 -0.000 -0.000 -0.001 -0.000
7108 4 -2.650 13.642 16.874 0.003 0.007 0.008 -0.000
3284 4 11.063 2.344 18.215 -0.005 -0.001 0.002 0.000
1062 4 -3.498 10.314 -0.148 -0.004 0.002 0.004 0.000
962 4 4.352 15.164 7.654 -0.001 -0.005 0.001 0.000
2678 4 -1.164 14.567 12.854 -0.004 0.001 0.003 -0.000
19292 4 -0.108 9.993 -3.528 -0.004 0.006 -0.003 0.000
3296 4 -3.211 0.461 15.238 -0.015 -0.012 -0.001 -0.000
11162 4 12.827 -2.198 19.678 0.008 -0.003 -0.011 -0.000
18457 4 5.339 -1.697 -5.418 -0.000 0.009 -0.010 0.000
4511 4 2.124 5.297 -3.921 -0.007 0.011 -0.002 -0.000
2191 4 12.786 13.088 7.521 -0.001 0.014 0.004 -0.000
6147 4 -3.413 12.569 9.195 0.000 -0.003 -0.000 -0.000
2666 4 0.283 14.485 20.419 -0.019 -0.006 -0.001 -0.000
7704 4 -3.716 0.511 12.837 0.007 -0.010 0.011 -0.000
11168 4 -2.279 5.080 2.787 -0.001 -0.002 0.008 0.000
11191 4 12.260 10.614 12.035 0.008 -0.010 0.010 -0.000
10044 4 0.461 13.381 17.528 0.001 -0.009 -0.003 -0.000
20267 4 1.505 -0.449 19.632 -0.009 0.002 -0.015 0.000
6472 4 11.669 2.152 15.590 0.002 -0.000 0.003 0.000
5060 4 -1.006 15.099 15.513 0.010 0.003 -0.006 0.000
6634 4 -4.646 8.572 8.828 -0.003 0.003 -0.000 0.000
3364 4 -1.175 -1.129 20.070 -0.008 -0.004 0.003 0.000
1220 4 2.444 1.737 17.780 0.006 0.008 -0.008 0.000
10031 4 10.524 12.017 19.082 -0.005 -0.007 0.003 -0.000
26701 4 3.143 -3.449 -5.385 0.007 0.011 0.007 0.000
13596 4 1.670 -3.382 12.149 0.006 -0.006 -0.004 0.000
7219 4 -4.770 14.188 3.192 -0.000 0.005 -0.015 0.000
18481 4 4.806 -2.078 5.453 0.002 -0.002 -0.001 0.000
8692 4 0.016 -2.196 -1.951 0.002 -0.016 -0.007 -0.000
139 4 12.247 -3.532 -0.954 -0.004 0.006 -0.000 -0.000
9735 4 14.786 -0.677 19.211 0.004 0.009 -0.009 0.000
20916 4 -4.504 4.156 19.765 0.015 0.005 -0.003 0.000
8370 4 -4.368 8.072 -2.013 -0.007 -0.008 -0.008 -0.000
19201 4 -1.206 7.214 -2.864 0.009 -0.002 -0.002 -0.000
445 4 13.066 0.670 -1.771 -0.001 0.008 -0.005 0.000
8390 4 14.110 14.727 6.150 0.001 -0.008 -0.008 -0.000
8656 4 9.173 -1.503 2.743 -0.003 -0.002 -0.005 0.000
19691 4 9.367 -3.684 -0.980 -0.007 -0.001 -0.001 0.000
1217 4 -4.713 -1.267 7.717 0.003 -0.010 -0.006 0.000
7519 4 1.297 7.200 20.946 -0.009 0.004 -0.003 0.000
13556 4 -4.260 3.464 3.454 -0.004 -0.004 -0.003 -0.000
3664 4 -3.181 0.010 18.366 0.004 -0.006 0.007 0.000
504 4 7.485 0.502 3.095 0.001 -0.001 -0.005 0.000
6187 4 -3.731 2.719 17.479 -0.006 0.006 0.002 -0.000
20593 4 10.002 0.517 20.588 0.008 -0.003 -0.002 0.000
3616 4 -3.840 8.510 16.004 0.010 -0.000 -0.012 0.000
27690 4 -2.377 -1.975 -1.092 0.010 0.008 0.004 -0.000
1608 4 10.470 13.719 17.028 0.011 -0.001 -0.009 -0.000
1819 4 8.845 -2.664 5.110 0.007 0.001 -0.010 0.000
841 4 -2.321 14.816 8.102 -0.004 -0.007 -0.013 -0.000
10332 4 10.685 0.206 -4.101 0.005 -0.007 -0.008 -0.000
2210 4 8.708 14.523 18.803 0.009 0.009 0.002 -0.000
7259 4 13.365 14.951 9.077 -0.002 0.002 0.009 -0.000
31595 4 -3.587 5.778 4.844 -0.002 0.003 0.001 -0.000
4547 4 -3.767 7.489 13.400 0.009 0.005 0.006 0.000
10305 4 11.694 -0.802 2.186 0.009 -0.001 -0.002 -0.000
12393 4 12.543 2.245 10.935 -0.006 0.000 -0.005 0.000
18530 4 -4.589 12.362 -3.703 -0.010 0.005 -0.009 -0.000
1609 4 5.491 11.364 -2.143 0.004 -0.001 -0.003 -0.000
2895 4 5.634 14.751 15.410 -0.017 -0.014 -0.008 0.000
1281 4 5.578 -0.425 8.219 -0.013 0.006 -0.008 -0.000
20669 4 11.979 3.079 13.348 0.000 -0.000 0.019 0.000
2243 4 11.994 12.680 20.710 -0.007 -0.000 -0.000 -0.000
7387 4 -2.705 12.732 14.403 0.003 0.005 -0.005 -0.000
491 4 -1.837 15.133 -3.775 0.001 0.008 0.015 -0.000
14879 4 -5.018 11.699 1.514 0.010 -0.000 0.007 0.000
486 4 10.268 4.375 -4.365 0.000 0.008 0.008 0.000
9487 4 4.954 -1.082 0.070 0.002 -0.002 -0.002 -0.000
24288 4 -3.468 -0.582 21.170 0.009 -0.002 0.001 -0.000
2001 4 2.880 1.549 20.147 -0.007 -0.001 0.003 -0.000
8791 4 7.265 2.613 -4.662 -0.006 -0.001 -0.004 -0.000
2860 4 1.087 7.706 -4.385 0.005 -0.007 -0.009 -0.000
9402 4 0.883 -2.571 2.979 -0.010 -0.007 -0.002 0.000
5360 4 3.086 -2.279 18.562 -0.000 0.003 -0.005 -0.000
19764 4 3.419 7.611 -2.905 0.007 0.017 0.009 -0.000
10730 4 7.252 4.681 21.261 -0.003 -0.006 0.005 -0.000
12386 4 -3.336 -1.978 3.491 -0.011 -0.000 0.003 -0.000
23632 4 4.651 -2.391 8.418 -0.009 0.013 -0.003 -0.000
16110 4 13.577 11.016 19.286 0.002 -0.006 -0.007 -0.000
10361 4 4.515 -2.057 16.684 -0.011 0.000 0.007 -0.000
17364 4 -3.062 6.167 -4.811 0.000 0.005 -0.002 -0.000
1368 4 6.323 14.537 -5.184 -0.005 0.002 -0.003 0.000
10712 4 9.681 3.016 21.105 0.012 -0.001 -0.000 0.000
7071 4 13.892 14.702 3.082 0.007 -0.004 0.004 -0.000
18018 4 13.134 8.802 -4.248 0.016 -0.006 -0.008 0.000
1673 4 13.659 3.190 4.753 -0.004 0.000 -0.012 -0.000
19811 4 10.884 10.255 -5.469 -0.012 0.009 -0.001 -0.000
22436 4 12.210 5.027 -2.156 0.004 0.001 -0.006 0.000
9804 4 12.405 -2.983 17.101 0.003 0.002 -0.010 -0.000
2514 4 4.651 -3.411 12.007 0.003 -0.007 -0.008 0.000
88 4 1.666 -1.777 1.094 0.001 0.001 0.000 -0.000
1226 4 13.431 3.005 -4.828 -0.000 0.013 0.002 -0.000
1912 4 9.201 12.385 21.037 0.010 -0.008 0.002 0.000
875 4 14.390 9.244 10.512 -0.001 0.001 0.008 -0.000
5319 4 -3.627 -1.865 13.487 0.004 -0.010 -0.005 0.000
10342 4 10.970 -0.300 15.979 0.005 -0.000 -0.002 0.000
5920 4 -4.267 10.119 13.415 -0.001 -0.005 -0.012 -0.000
5381 4 -4.053 -0.527 -1.948 -0.000 0.005 -0.000 0.000
7781 4 -5.511 8.138 11.695 0.000 -0.012 0.002 0.000
18940 4 -3.611 15.352 -2.484 0.003 0.001 -0.003 -0.000
19215 4 3.328 -2.733 -0.831 0.011 -0.001 -0.002 0.000
2513 4 9.623 6.081 21.247 -0.016 0.003 -0.001 -0.000
6037 4 -4.040 -1.677 16.243 0.008 0.000 0.003 0.000
30550 4 -0.179 -2.564 5.119 -0.001 -0.002 0.010 -0.000
20240 4 -3.868 6.880 21.163 0.006 0.003 0.008 -0.000
6961 4 11.701 7.865 21.187 -0.005 -0.021 0.001 -0.000
2867 4 8.231 5.655 -4.478 -0.002 0.003 0.003 -0.000
18924 4 3.490 12.490 -4.058 -0.012 0.001 0.003 0.000
93 4 2.898 15.230 -4.374 -0.003 -0.005 0.009 -0.000
17497 4 14.202 3.655 14.505 -0.009 0.003 0.001 -0.000
4168 4 2.461 15.139 15.000 -0.000 0.006 -0.001 -0.000
3283 4 -0.018 1.700 19.964 0.005 -0.016 -0.002 0.000
2613 4 -3.535 12.751 21.478 0.003 -0.001 0.001 -0.000
23659 4 -2.406 3.947 -5.331 0.003 -0.004 -0.001 -0.000
7360 4 -3.534 15.352 13.644 0.005 -0.005 -0.000 0.000
1013 4 9.818 14.795 -2.335 0.007 -0.004 0.003 0.000
2802 4 13.416 12.086 15.901 -0.007 -0.012 0.005 -0.000