ITEM: TIMESTEP
59000
ITEM: NUMBER OF ATOMS
32000
ITEM: BOX BOUNDS pp pp pp
-5.773673 76.253673
-3.380933 73.860933
-6.386474 76.866474
ITEM: ATOMS id type x y z vx vy vz q
2528 4 3.983 5.594 20.416 0.009 -0.001 -0.001 -0.000
19217 4 -4.283 7.368 1.662 0.002 0.005 -0.002 0.000
3307 4 -2.063 1.389 4.465 0.008 -0.008 -0.005 -0.000
3365 4 3.887 6.211 5.031 -0.002 0.004 -0.003 -0.000
6029 4 -3.090 0.693 8.966 -0.003 -0.009 -0.002 0.000
614 4 8.342 7.344 9.164 -0.006 -0.005 -0.007 0.000
201 4 9.779 -0.215 -1.091 0.001 -0.002 -0.002 0.000
1777 4 12.477 0.242 11.827 -0.009 0.008 -0.009 -0.000
217 4 -2.493 4.810 10.577 0.000 -0.001 0.006 -0.000
173 4 2.082 13.680 -3.694 -0.010 -0.009 -0.002 0.000
3830 4 9.578 7.667 14.408 0.011 0.004 0.006 0.000
6154 4 2.680 4.311 -1.115 -0.004 0.003 -0.004 0.000
178 4 0.025 12.282 8.967 0.011 -0.009 0.003 0.000
27566 4 8.528 14.965 -0.010 -0.000 -0.006 0.003 -0.000
3246 4 1.788 5.646 17.666 -0.005 -0.003 -0.007 -0.000
19244 4 12.848 1.831 8.056 0.002 0.008 -0.005 0.000
1276 4 7.585 15.161 3.167 0.000 0.003 -0.002 -0.000
2857 4 -2.322 3.887 13.308 -0.013 -0.000 -0.006 -0.000
11147 4 13.595 7.935 17.429 0.003 0.005 -0.008 0.000
150 4 9.916 5.178 3.025 0.014 0.012 0.003 -0.000
7787 4 10.296 10.160 0.814 -0.000 0.005 0.011 0.000
18858 4 4.121 11.993 18.143 -0.006 0.006 -0.007 0.000
2524 4 -1.179 4.545 3.893 0.004 0.004 -0.000 0.000
1291 4 1.721 6.830 10.431 0.001 0.010 -0.001 0.000
810 4 9.437 2.010 14.285 0.011 0.005 0.001 -0.000
41 4 4.573 9.390 0.512 -0.005 -0.000 -0.002 0.000
27130 4 12.259 6.265 4.239 0.002 -0.006 -0.001 0.000
19737 4 -0.629 14.402 7.576 0.007 0.004 0.007 -0.000
13075 4 9.331 -1.461 1.345 -0.004 0.007 -0.003 0.000
14716 4 7.356 5.321 1.670 0.001 0.002 -0.003 0.000
22878 4 3.052 11.466 -1.724 0.005 -0.008 -0.001 -0.000
2412 4 1.047 4.146 14.757 0.006 -0.004 -0.007 -0.000
9924 4 -0.525 8.250 -0.487 -0.003 0.008 0.003 -0.000
163 4 -1.285 10.206 -2.136 0.005 0.005 -0.005 -0.000
27247 4 9.406 4.832 0.159 0.004 0.007 0.006 0.000
26705 4 4.886 -0.443 4.864 0.003 -0.004 0.003 -0.000
13180 4 4.373 6.614 -0.610 0.009 0.002 0.002 -0.000
27574 4 -2.751 -2.021 -2.063 0.001 -0.002 -0.006 0.000
11552 4 0.630 3.517 -0.752 0.002 -0.011 -0.008 -0.000
9583 4 5.203 6.623 2.786 -0.006 0.003 -0.000 -0.000
528 4 8.358 3.778 12.648 0.001 0.001 -0.008 -0.000
5335 4 4.330 6.700 16.860 -0.008 0.002 0.013 -0.000
16209 4 8.160 6.677 4.467 -0.016 -0.005 -0.003 -0.000
18523 4 10.512 3.258 -3.665 0.000 0.003 -0.004 0.000
2046 4 7.928 6.083 13.581 0.003 0.004 -0.003 -0.000
5227 4 1.253 6.286 13.816 0.012 -0.000 0.007 -0.000
4091 4 -2.975 10.876 2.653 0.010 -0.004 0.003 0.000
3203 4 5.791 12.853 20.672 0.000 0.002 0.014 0.000
5221 4 3.090 4.696 15.572 0.003 -0.000 0.005 0.000
5676 4 -2.863 5.075 8.066 0.000 -0.002 0.010 -0.000
14359 4 -1.768 6.837 3.037 -0.004 0.000 -0.002 -0.000
2563 4 2.571 4.266 12.826 -0.005 -0.002 -0.002 -0.000
16004 4 13.995 5.726 13.269 0.010 0.001 -0.008 -0.000
203 4 1.936 7.963 0.433 0.001 0.003 -0.009 -0.000
6067 4 3.396 8.328 3.830 -0.009 0.007 -0.001 0.000
11168 4 5.349 6.800 13.494 0.006 -0.005 0.001 0.000
3616 4 2.418 3.672 20.579 0.009 0.009 -0.006 0.000
4547 4 0.313 10.077 14.025 -0.004 -0.003 0.006 -0.000
9402 4 13.901 10.294 -2.406 -0.004 0.001 -0.001 -0.000
19307 4 11.820 8.859 -2.335 -0.008 -0.001 -0.010 -0.000
875 4 7.098 5.846 -0.873 0.009 -0.007 0.006 -0.000
7303 4 -3.727 5.811 17.355 -0.001 0.000 -0.004 -0.000
8784 4 4.331 13.743 -1.630 0.002 -0.004 -0.001 0.000
9058 4 9.609 4.972 -2.392 -0.002 -0.000 0.000 0.000
2414 4 5.980 10.217 2.999 -0.001 0.009 -0.010 0.000
20227 4 4.772 9.469 17.634 -0.001 -0.005 0.006 -0.000
206 4 0.258 8.615 8.522 -0.001 -0.009 0.018 0.000
19643 4 0.841 5.967 3.699 -0.002 0.008 -0.005 0.000
12396 4 -0.164 3.500 7.940 0.018 0.001 0.008 0.000
9568 4 0.931 -0.060 5.579 -0.005 -0.002 0.003 0.000
10361 4 5.128 4.521 8.005 -0.008 0.015 -0.000 0.000
4555 4 2.358 9.134 9.863 -0.006 -0.006 -0.001 0.000
6477 4 1.623 1.455 18.903 -0.003 -0.006 -0.007 0.000
2215 4 2.220 2.445 1.306 0.001 -0.012 -0.014 0.000
5686 4 4.824 11.535 15.567 -0.002 -0.003 0.003 -0.000
27068 4 3.704 1.041 2.908 -0.004 -0.002 0.000 -0.000
17239 4 9.995 14.006 2.273 0.002 0.000 -0.005 -0.000
2493 4 3.869 5.696 11.568 -0.003 0.005 0.011 0.000
1646 4 0.254 5.337 7.092 0.002 0.002 0.004 0.000
8725 4 -0.025 5.274 11.904 -0.015 0.010 -0.007 -0.000
16140 4 5.200 10.585 12.268 -0.002 0.009 -0.014 0.000
4477 4 1.940 10.118 4.678 -0.008 -0.007 0.000 -0.000
19662 4 4.850 -1.015 -0.198 -0.008 0.002 -0.000 -0.000
3739 4 0.065 2.815 12.776 0.005 0.011 0.000 -0.000
8370 4 6.441 10.025 5.744 0.004 0.007 0.002 -0.000
769 4 9.314 8.053 1.059 0.005 0.008 -0.007 -0.000
1098 4 3.505 2.360 16.676 0.000 0.005 0.004 -0.000
13588 4 6.739 12.446 2.735 0.006 -0.001 0.008 0.000
5721 4 2.230 5.866 1.575 -0.002 -0.001 -0.000 -0.000
31474 4 6.185 -0.694 1.921 -0.002 0.008 -0.000 0.000
3064 4 8.845 9.030 -1.217 0.012 0.004 -0.002 0.000
2678 4 2.824 7.705 14.857 -0.005 -0.005 -0.003 0.000
1096 4 8.768 4.206 5.379 -0.005 0.000 -0.004 -0.000
18820 4 8.524 -0.038 3.714 -0.003 0.009 0.001 -0.000
23630 4 -0.496 10.308 1.679 0.001 0.013 0.009 -0.000
4995 4 4.651 8.455 8.683 -0.000 0.009 0.004 0.000
7151 4 1.377 1.972 4.354 0.009 -0.003 0.007 0.000
7239 4 0.145 10.620 10.710 0.004 -0.000 0.005 0.000
23626 4 14.154 3.853 -1.272 -0.000 -0.004 0.007 0.000
1900 4 11.309 14.354 -0.011 0.009 -0.004 -0.002 0.000
5959 4 -3.737 5.112 4.772 -0.012 -0.001 -0.012 -0.000
1293 4 -1.965 13.997 -4.936 -0.006 0.002 0.000 0.000
11506 4 -3.807 1.267 16.330 0.001 -0.005 0.014 -0.000
22747 4 12.698 6.988 14.205 0.008 0.004 -0.014 -0.000
852 4 8.289 12.524 5.532 -0.004 0.008 -0.000 -0.000
9564 4 -0.810 7.930 13.256 0.004 -0.005 -0.005 0.000
5874 4 3.514 9.730 19.860 0.007 0.001 -0.000 -0.000
11454 4 10.325 2.726 1.544 -0.001 -0.004 0.007 0.000
6550 4 11.915 5.050 11.066 -0.003 -0.002 0.002 -0.000
6117 4 5.435 0.097 12.603 0.006 0.005 -0.009 -0.000
14331 4 5.123 -0.538 7.784 0.009 0.002 0.001 -0.000
2705 4 4.740 9.228 14.408 -0.007 -0.001 0.002 -0.000
521 4 -2.582 8.546 6.696 -0.004 -0.001 -0.006 -0.000
5540 4 -0.092 8.805 6.075 0.002 0.005 -0.002 0.000
9532 4 -5.258 4.677 2.435 0.010 0.010 0.006 0.000
9361 4 -2.345 10.939 -0.352 0.001 0.005 0.006 0.000
8687 4 -0.130 13.213 -2.633 -0.006 0.006 0.008 -0.000
7604 4 5.669 2.159 17.129 0.001 0.004 0.002 0.000
10081 4 2.133 9.803 7.153 0.001 0.011 0.011 -0.000
1408 4 6.846 8.897 12.955 -0.003 -0.003 -0.005 0.000
19691 4 6.796 8.121 1.033 0.012 0.005 -0.006 0.000
3452 4 -1.683 10.266 12.464 0.006 -0.005 -0.002 0.000
9124 4 10.117 2.305 -1.324 0.005 0.002 0.008 0.000
930 4 2.407 -2.934 -3.414 0.006 0.003 0.000 -0.000
11231 4 4.434 8.282 11.428 0.005 -0.006 -0.001 0.000
3702 4 3.992 15.508 15.984 -0.005 -0.011 0.003 0.000
19007 4 2.751 9.154 -2.133 0.001 0.005 -0.008 -0.000
20297 4 -0.282 0.364 15.181 -0.000 -0.008 0.007 -0.000
725 4 1.817 12.371 6.262 0.003 0.004 0.002 0.000
3923 4 0.777 0.533 12.679 -0.004 0.004 -0.010 0.000
2511 4 -2.929 -0.531 14.018 -0.002 -0.001 -0.001 0.000
4517 4 7.772 9.007 -3.651 0.002 0.001 -0.003 0.000
4610 4 -3.658 6.309 14.530 0.006 0.001 0.002 -0.000
8731 4 12.908 -1.972 14.082 -0.004 0.002 0.009 -0.000
23835 4 2.198 6.804 7.922 0.006 -0.002 -0.003 -0.000
18607 4 6.423 5.221 4.791 -0.003 0.011 0.006 0.000
11146 4 8.191 6.671 19.125 0.012 -0.004 -0.005 0.000
6039 4 6.000 4.912 15.494 0.005 0.003 -0.000 0.000
31595 4 -0.592 2.775 5.644 0.012 -0.006 0.009 -0.000
5723 4 11.605 11.947 14.413 0.001 0.005 0.007 -0.000
9018 4 -2.142 6.341 12.021 0.001 -0.011 -0.009 0.000
3563 4 4.208 2.416 19.175 -0.001 -0.005 -0.003 -0.000
9936 4 6.594 7.104 7.271 -0.002 -0.010 0.003 -0.000
9137 4 3.833 3.633 3.048 -0.009 -0.006 0.002 0.000
9534 4 -1.424 2.480 -0.263 0.001 0.001 -0.003 0.000
9474 4 1.229 2.079 6.928 0.007 -0.009 -0.021 -0.000
27551 4 9.883 -2.184 3.721 0.002 0.003 -0.005 0.000
19490 4 7.860 3.138 16.361 -0.009 0.009 0.007 -0.000
2462 4 -2.677 -0.403 19.814 0.001 0.001 -0.011 -0.000
5444 4 -0.402 13.311 0.838 -0.001 0.004 -0.006 0.000
5737 4 9.401 5.434 -4.992 -0.004 -0.004 0.001 0.000
6913 4 8.078 6.057 16.627 0.009 -0.000 0.004 -0.000
3085 4 9.418 0.234 -5.657 -0.008 0.009 0.013 -0.000
18401 4 -3.248 8.130 -1.257 0.003 0.003 0.003 0.000
6754 4 6.672 9.409 10.113 -0.000 -0.003 0.003 0.000
2168 4 4.253 4.583 18.335 0.006 0.002 -0.002 0.000
18852 4 8.381 4.743 8.126 0.008 0.005 0.004 -0.000
9974 4 2.740 1.748 -1.320 0.006 -0.011 0.004 -0.000
5783 4 4.903 1.459 10.068 -0.012 -0.003 -0.006 0.000
247 4 4.949 10.948 9.073 -0.001 -0.005 -0.004 -0.000
3039 4 8.310 -0.437 18.401 -0.008 -0.006 0.009 -0.000
25169 4 0.624 0.541 2.242 0.006 -0.001 0.005 -0.000
1297 4 2.705 13.043 11.322 0.001 -0.007 -0.002 -0.000
6880 4 11.089 8.205 12.055 -0.010 -0.007 0.004 -0.000
844 4 5.814 11.512 0.659 0.002 0.001 0.006 0.000
525 4 9.953 4.143 10.256 0.002 0.004 -0.002 -0.000
1702 4 0.552 5.881 -0.438 -0.004 0.007 -0.006 0.000
5838 4 -0.245 4.556 1.512 -0.012 0.000 -0.001 -0.000
13178 4 -2.111 6.157 0.448 -0.007 -0.004 0.000 -0.000
10782 4 4.225 8.408 6.070 -0.005 0.010 0.000 -0.000
214 4 1.962 4.078 5.214 -0.006 0.005 -0.004 -0.000
7666 4 0.252 -0.274 17.458 -0.022 0.011 -0.001 0.000
923 4 0.785 10.566 -0.440 -0.004 -0.010 -0.002 0.000
18847 4 2.073 9.112 -4.778 -0.001 0.016 0.006 -0.000
12407 4 13.908 9.982 15.177 -0.004 -0.001 -0.001 0.000
2681 4 10.292 5.893 12.792 -0.000 0.005 0.004 -0.000
19223 4 2.276 4.148 10.483 0.000 -0.007 0.001 0.000
15578 4 -2.872 4.874 -2.686 -0.002 -0.004 0.000 0.000
2066 4 1.784 8.297 12.755 -0.002 -0.012 0.004 0.000
15436 4 6.424 12.034 7.067 -0.003 0.007 -0.007 0.000
2006 4 -1.171 5.880 14.498 -0.008 -0.002 -0.008 -0.000
23659 4 4.480 5.317 -2.980 0.004 0.001 -0.001 -0.000
8374 4 1.380 0.938 -3.643 -0.000 -0.000 -0.011 0.000
23675 4 7.919 2.969 -1.064 0.001 -0.002 0.008 -0.000
1161 4 10.010 8.549 8.114 -0.012 -0.009 0.009 -0.000
3429 4 -1.594 6.813 5.530 -0.009 -0.019 0.000 -0.000
23874 4 -1.530 6.484 -1.914 -0.011 -0.003 -0.004 -0.000
13194 4 8.626 9.462 15.825 0.012 0.002 0.003 -0.000
7519 4 7.802 -2.415 17.438 0.004 0.008 0.009 0.000
321 4 -0.149 7.009 1.490 -0.008 0.003 -0.014 0.000
9192 4 7.558 3.141 9.844 -0.008 -0.001 -0.001 0.000
17163 4 1.076 10.791 -3.486 0.001 -0.003 0.002 0.000
27166 4 -0.774 9.451 -4.706 0.009 -0.001 0.005 -0.000
526 4 9.396 11.474 3.308 0.002 0.008 0.007 -0.000
23632 4 4.366 0.138 17.227 0.004 0.006 -0.003 0.000
5399 4 11.588 12.598 4.256 0.004 0.002 -0.002 -0.000
7040 4 -1.334 12.760 11.270 -0.005 0.002 -0.003 -0.000
10296 4 -0.623 6.026 9.084 0.001 0.001 -0.002 -0.000
2848 4 0.871 2.442 16.233 0.001 -0.004 0.004 0.000
5473 4 -2.968 7.351 9.099 -0.002 0.009 0.000 0.000
2427 4 8.790 8.771 5.680 -0.004 0.005 0.008 0.000
1295 4 6.135 -0.972 -4.048 0.008 0.004 -0.005 0.000
4946 4 -2.446 9.125 4.465 0.006 -0.005 0.005 0.000
2064 4 -0.564 3.384 10.377 -0.002 0.007 0.003 0.000
1506 4 11.449 11.607 8.255 -0.009 0.000 0.009 0.000
1839 4 7.522 9.119 7.689 0.013 0.007 0.003 -0.000
6238 4 6.819 10.647 19.476 -0.003 0.000 0.004 -0.000
9762 4 4.722 2.777 -2.148 -0.005 0.004 0.002 0.000
3420 4 14.162 11.041 11.673 0.015 -0.008 0.012 0.000
969 4 3.086 -0.504 -2.501 0.000 0.010 0.001 -0.000
7306 4 -2.304 11.063 6.512 -0.007 0.004 0.004 0.000
404 4 -0.491 2.413 2.460 -0.007 0.008 -0.004 0.000
3247 4 6.667 10.955 16.794 -0.004 0.007 -0.011 0.000
2 4 8.177 0.259 -3.230 -0.005 0.013 -0.014 -0.000
12715 4 12.314 6.119 -3.150 0.007 0.001 -0.009 -0.000
9933 4 -3.041 12.718 -2.254 0.001 0.001 -0.007 0.000
23631 4 -2.592 2.691 9.275 -0.001 -0.002 0.001 0.000
4910 4 1.986 13.935 -0.357 -0.002 0.010 0.002 0.000
9814 4 8.546 5.697 11.108 0.001 0.002 -0.000 0.000
2010 4 2.286 12.670 16.693 0.004 -0.006 0.002 -0.000
2932 4 8.910 12.360 0.776 0.001 -0.001 0.003 -0.000
6594 4 13.328 7.212 8.501 0.003 -0.000 0.000 -0.000
899 4 6.056 7.981 4.827 -0.002 0.007 -0.009 0.000
8698 4 6.847 10.888 13.868 0.000 -0.002 0.002 -0.000
25166 4 6.210 9.009 -1.377 0.000 -0.006 0.004 -0.000
14447 4 1.988 13.934 9.016 0.008 -0.007 -0.001 0.000
22440 4 3.404 1.089 6.838 -0.004 -0.012 0.005 0.000
18965 4 2.693 -0.234 0.288 0.007 -0.003 -0.009 0.000
93 4 5.005 3.877 -5.329 -0.004 -0.004 0.001 0.000
1612 4 13.103 9.953 6.956 0.014 0.008 -0.001 -0.000
5352 4 6.570 7.701 15.356 0.003 -0.001 -0.006 0.000
2176 4 -0.705 8.155 10.634 0.005 -0.002 -0.006 -0.000
4313 4 2.142 14.705 1.905 -0.001 0.000 -0.001 -0.000
4518 4 -0.733 0.966 7.753 -0.003 -0.002 0.000 0.000
3854 4 2.486 12.267 14.165 -0.001 0.006 -0.008 0.000
4985 4 0.620 6.338 20.168 0.002 -0.007 0.004 -0.000
24378 4 -4.988 11.996 6.039 0.005 -0.005 -0.003 0.000
5634 4 9.807 0.827 6.577 0.003 0.000 -0.004 0.000
2420 4 -2.806 4.651 2.022 -0.007 -0.007 0.004 0.000
19736 4 -2.401 8.103 15.949 -0.009 0.003 -0.001 0.000
9014 4 12.212 -1.373 -5.795 0.008 0.002 -0.007 -0.000
7159 4 11.797 12.200 1.736 0.000 -0.003 -0.002 -0.000
488 4 0.107 0.833 -0.259 -0.005 -0.001 -0.011 -0.000
1871 4 6.892 4.653 18.884 -0.003 0.004 -0.003 -0.000
19096 4 6.460 1.508 2.852 0.001 0.009 0.008 0.000
18907 4 11.249 4.121 5.196 -0.008 0.003 0.005 -0.000
2108 4 9.709 4.627 18.204 0.004 0.003 0.005 0.000
1668 4 12.890 10.097 -0.227 -0.008 0.007 -0.004 -0.000
641 4 4.719 1.505 0.561 -0.003 -0.004 -0.006 0.000
7277 4 2.261 1.814 14.167 0.000 -0.008 0.002 -0.000
2167 4 1.965 8.181 17.164 0.008 0.006 -0.007 -0.000
19015 4 3.538 10.458 2.562 -0.010 0.001 -0.013 0.000
11555 4 5.152 13.848 11.073 0.015 -0.001 -0.001 0.000
2418 4 0.829 -1.334 -1.671 -0.002 0.000 0.003 0.000
7717 4 12.899 1.242 13.964 -0.014 -0.003 -0.002 -0.000
6353 4 4.173 10.154 -4.536 -0.009 -0.005 0.002 0.000
20276 4 9.283 2.341 8.481 0.001 0.011 0.008 -0.000
20545 4 -3.471 -0.159 11.098 -0.001 -0.002 0.000 0.000
5387 4 9.403 7.653 17.284 0.001 0.006 -0.010 -0.000
2830 4 11.397 4.524 8.846 0.001 -0.004 -0.002 0.000
13960 4 -1.061 -1.367 6.224 -0.003 0.012 0.011 0.000
2270 4 10.774 2.727 16.174 -0.003 -0.009 -0.002 -0.000
7781 4 1.730 1.557 10.410 0.004 -0.001 -0.001 -0.000
13152 4 1.931 0.136 15.933 -0.007 0.013 -0.004 0.000
7360 4 -4.066 11.842 20.236 -0.007 -0.001 0.008 -0.000
722 4 2.214 11.561 8.885 -0.003 -0.003 0.003 -0.000
4955 4 -2.268 11.349 14.978 0.007 -0.006 -0.008 0.000
9252 4 -0.959 -0.614 3.889 0.005 0.014 0.004 -0.000
13066 4 -1.847 0.614 1.438 -0.001 -0.003 -0.008 0.000
821 4 12.157 4.210 14.520 -0.019 0.003 0.003 -0.000
19376 4 12.155 0.807 -4.216 -0.006 0.004 0.003 -0.000
6146 4 -2.877 1.984 6.836 -0.000 0.000 0.005 -0.000
5677 4 7.566 3.267 -3.769 -0.001 0.001 -0.001 -0.000
6046 4 5.023 -2.779 5.812 -0.005 0.000 0.007 0.000
9946 4 6.777 0.037 16.238 -0.015 -0.009 -0.008 -0.000
10374 4 4.357 10.919 5.264 -0.001 0.006 -0.005 0.000
11888 4 11.664 10.018 16.477 0.001 -0.003 0.000 0.000
10354 4 14.875 8.426 10.258 0.009 0.004 0.001 -0.000
11529 4 5.917 4.617 12.676 -0.009 0.014 0.003 0.000
19342 4 8.765 13.879 -2.636 -0.004 -0.000 -0.005 0.000
22588 4 -1.763 0.127 -1.626 -0.010 -0.003 0.002 -0.000
649 4 11.275 9.277 19.536 -0.004 0.003 -0.005 -0.000
1083 4 0.383 7.368 -3.478 -0.002 0.009 0.005 0.000
19734 4 -1.327 6.014 -4.744 0.009 0.003 0.002 -0.000
4136 4 -0.434 2.094 -2.543 0.012 -0.009 0.001 0.000
9543 4 2.680 -2.531 6.741 0.010 0.006 0.014 0.000
14626 4 -1.464 1.121 13.260 -0.001 -0.004 -0.009 0.000
3613 4 2.991 -0.263 11.516 0.004 0.003 0.009 0.000
19785 4 5.473 4.220 10.308 -0.004 -0.002 -0.002 -0.000
9563 4 8.451 -1.452 15.048 0.004 -0.006 0.006 -0.000
854 4 -1.729 15.038 4.043 -0.012 -0.004 0.008 0.000
22759 4 -0.290 11.232 4.709 0.007 0.011 0.004 -0.000
170 4 5.354 11.174 -2.063 0.007 0.003 -0.000 -0.000
19037 4 11.339 10.573 -4.158 -0.010 -0.004 -0.002 -0.000
28270 4 8.765 1.008 1.105 0.008 -0.002 -0.001 -0.000
13513 4 -2.043 12.829 16.914 -0.002 0.007 -0.007 0.000
21421 4 -4.609 3.840 12.397 -0.000 -0.003 -0.005 0.000
10334 4 10.845 11.410 -1.633 -0.001 -0.006 -0.000 -0.000
42 4 -0.837 0.513 10.710 -0.005 0.004 -0.004 0.000
6318 4 11.930 11.914 17.964 0.011 -0.004 -0.010 0.000
59 4 3.250 2.745 8.484 -0.001 -0.007 0.007 -0.000
14879 4 -5.722 13.519 -1.736 -0.002 0.001 -0.008 -0.000
9487 4 -3.492 -0.583 3.883 -0.003 0.000 -0.002 0.000
2084 4 1.504 -0.336 7.821 0.001 -0.005 0.005 -0.000
6583 4 3.942 2.121 12.230 -0.012 -0.001 0.002 0.000
1658 4 3.162 12.208 0.720 0.018 0.004 -0.000 -0.000
5781 4 -3.103 2.659 -2.742 -0.008 -0.006 0.014 -0.000
2610 4 0.174 12.093 15.446 -0.001 0.007 0.007 0.000
2098 4 5.593 -1.771 18.275 -0.005 0.008 0.003 -0.000
24233 4 11.164 2.941 12.749 0.004 0.005 -0.001 0.000
19624 4 10.023 12.686 16.392 -0.000 0.013 -0.008 -0.000
19763 4 5.019 4.119 0.617 0.014 0.004 -0.009 -0.000
19293 4 -3.270 2.295 1.867 0.000 0.010 -0.006 -0.000
815 4 6.334 2.341 11.753 0.001 -0.014 0.001 -0.000
24362 4 5.826 0.561 19.225 -0.011 0.002 0.005 -0.000
16244 4 0.009 10.115 16.706 0.004 0.010 0.001 0.000
5247 4 3.996 14.365 13.030 -0.004 -0.006 -0.005 -0.000
4265 4 1.546 14.565 14.753 -0.003 0.002 0.008 -0.000
1004 4 0.440 4.704 -2.783 -0.002 -0.003 -0.003 -0.000
6187 4 -4.074 9.576 14.475 -0.001 0.004 -0.001 -0.000
18699 4 8.014 11.097 -1.680 -0.005 0.002 0.003 -0.000
9097 4 -2.198 13.062 8.907 0.001 -0.004 0.003 -0.000
19419 4 6.355 11.556 -4.425 0.003 0.001 0.000 0.000
19321 4 -1.933 15.850 -2.665 -0.005 -0.000 -0.005 -0.000
10775 4 9.329 1.703 11.450 -0.003 -0.011 -0.002 -0.000
9902 4 2.448 -0.888 2.886 -0.004 0.000 0.003 0.000
20141 4 0.332 8.180 15.365 -0.006 -0.008 0.008 0.000
2976 4 7.967 10.160 0.895 -0.003 -0.011 0.003 -0.000
3304 4 6.334 14.308 5.253 -0.001 0.002 -0.003 0.000
2313 4 6.093 6.720 10.428 0.007 0.014 0.002 -0.000
13597 4 14.119 13.315 0.191 -0.001 0.001 -0.011 0.000
9134 4 7.430 0.452 13.628 -0.005 -0.005 0.008 0.000
27954 4 5.618 0.178 -1.902 -0.005 0.004 -0.008 0.000
2164 4 -1.685 1.740 17.810 -0.006 0.005 0.003 0.000
3256 4 -0.722 5.242 16.962 0.002 -0.005 0.004 0.000
9961 4 2.622 3.260 -3.408 -0.007 0.012 -0.000 0.000
14297 4 0.610 -1.544 10.652 0.004 -0.007 -0.005 0.000
3484 4 1.467 10.979 18.785 -0.007 -0.005 -0.006 -0.000
2691 4 9.487 -1.934 19.657 -0.000 0.005 0.006 -0.000
4713 4 10.046 13.219 7.040 0.006 0.018 -0.004 -0.000
9028 4 10.632 6.616 9.425 -0.001 -0.006 -0.010 -0.000
6275 4 -2.620 -1.462 0.365 -0.006 -0.012 0.010 -0.000
162 4 1.495 12.700 3.172 -0.001 -0.004 -0.004 0.000
5878 4 7.225 5.563 -3.564 0.005 0.000 0.003 0.000
223 4 11.192 14.797 8.168 0.010 0.001 0.005 -0.000
2551 4 12.805 14.340 2.735 0.004 -0.004 -0.005 -0.000
31 4 -1.341 -1.317 12.455 0.012 -0.007 -0.002 -0.000
730 4 5.616 6.603 18.792 -0.003 -0.003 -0.005 0.000
2311 4 13.417 13.742 12.710 0.009 -0.013 0.014 0.000
5720 4 -4.635 7.233 6.885 0.000 -0.011 -0.007 -0.000
3883 4 -1.652 2.970 15.291 0.009 0.007 -0.002 -0.000
19367 4 2.082 6.663 -2.241 0.006 -0.002 0.009 0.000
2668 4 0.561 14.451 4.887 0.003 0.001 0.007 -0.000
31119 4 -5.022 6.076 -0.450 0.003 -0.001 0.001 -0.000
8390 4 12.107 9.067 10.075 -0.000 0.007 0.005 0.000
4111 4 -4.683 13.216 3.544 0.000 0.006 -0.003 -0.000
9735 4 -5.061 -0.841 14.721 0.005 0.013 0.014 -0.000
2126 4 -2.523 13.259 6.142 0.002 -0.008 0.001 -0.000
4681 4 2.586 10.271 15.441 -0.008 0.003 -0.005 -0.000
892 4 -1.790 10.639 9.192 0.010 0.007 -0.004 0.000
11292 4 6.785 1.820 7.713 0.010 0.002 -0.006 -0.000
11807 4 -4.794 3.808 15.895 -0.003 0.003 -0.003 0.000
18194 4 12.683 1.878 -1.994 0.000 -0.015 0.008 0.000
3504 4 7.240 8.723 17.772 0.001 -0.012 0.011 0.000
26524 4 -4.687 -2.624 5.200 0.001 -0.004 0.007 -0.000
1909 4 6.289 13.561 14.398 -0.013 0.010 -0.007 -0.000
2102 4 12.209 12.995 10.393 0.002 -0.004 0.013 0.000
3824 4 11.955 -2.603 16.583 -0.004 0.005 0.010 0.000
14351 4 -4.351 12.496 17.552 0.003 -0.003 0.001 0.000
13200 4 4.765 8.144 -3.195 0.003 -0.008 0.005 -0.000
10129 4 3.963 12.833 7.428 -0.004 -0.014 0.003 0.000
3972 4 0.295 13.093 17.626 0.009 -0.003 0.006 0.000
19702 4 8.121 3.204 2.442 0.005 0.008 -0.004 -0.000
19895 4 4.752 14.140 1.028 0.006 -0.005 -0.001 -0.000
10414 4 7.140 13.053 9.574 0.000 0.005 0.004 -0.000
19009 4 11.008 10.897 11.246 -0.004 0.003 0.002 -0.000
4833 4 -5.700 1.097 3.188 -0.012 0.002 -0.007 -0.000
13494 4 11.421 0.619 0.620 0.010 0.003 0.005 -0.000
27485 4 8.326 -2.079 12.632 0.003 -0.015 -0.004 0.000
2785 4 -1.180 -2.830 15.444 0.000 -0.001 0.006 0.000
8700 4 9.044 11.981 -4.306 0.003 -0.002 -0.007 -0.000
31068 4 -4.256 -2.572 19.691 0.009 -0.002 -0.002 0.000
10769 4 12.219 1.448 5.550 0.001 -0.004 -0.002 -0.000
2207 4 -3.145 2.291 11.462 -0.009 0.002 0.003 -0.000
2210 4 5.207 14.121 17.440 -0.002 0.012 -0.012 -0.000
1383 4 8.504 8.868 3.089 0.005 0.006 0.004 -0.000
9582 4 11.781 14.555 17.825 0.009 -0.006 0.019 -0.000
7054 4 -3.383 10.127 16.856 0.002 0.002 -0.006 -0.000
492 4 -4.963 12.573 10.767 0.004 0.009 0.002 -0.000
13545 4 2.686 -1.071 18.264 -0.007 -0.010 -0.003 -0.000
1722 4 14.217 2.242 19.198 -0.002 -0.008 -0.002 -0.000
31955 4 0.641 -1.376 -4.292 0.003 0.002 0.004 -0.000
7448 4 9.920 13.624 18.676 -0.010 -0.002 -0.003 0.000
6962 4 8.588 12.622 13.789 0.008 0.004 -0.007 -0.000
5709 4 12.261 3.808 2.902 -0.002 -0.001 0.001 -0.000
13156 4 6.377 13.940 -3.558 -0.010 -0.001 -0.001 -0.000
16404 4 3.126 7.384 19.145 -0.011 -0.000 -0.006 0.000
4601 4 7.374 2.221 4.967 -0.004 0.004 -0.001 -0.000
445 4 8.599 -2.219 -1.662 0.008 0.003 0.000 -0.000
5393 4 9.861 2.476 4.143 -0.006 -0.005 -0.004 0.000
27578 4 10.613 6.929 -0.952 0.010 0.005 -0.000 0.000
3284 4 12.128 0.158 16.234 -0.000 0.001 -0.011 -0.000
8647 4 0.365 -1.610 0.735 -0.000 -0.010 -0.016 -0.000
1588 4 14.085 13.078 8.445 0.013 -0.013 0.010 0.000
4386 4 -4.461 -1.839 9.777 -0.000 0.008 0.005 -0.000
3863 4 12.761 13.464 16.179 0.007 -0.005 -0.013 0.000
19226 4 7.410 0.023 11.097 0.001 -0.010 0.001 -0.000
10693 4 -5.157 1.550 9.524 -0.008 0.002 -0.004 -0.000
6480 4 0.753 3.047 -4.880 -0.003 -0.002 -0.017 -0.000
5439 4 10.968 14.504 14.239 -0.008 -0.002 -0.011 0.000
926 4 10.655 -0.289 14.661 0.008 0.001 -0.010 0.000
17003 4 -0.028 4.130 19.135 0.001 0.009 0.008 0.000
1331 4 6.902 2.759 14.240 0.008 -0.011 -0.003 -0.000
4967 4 11.567 8.462 5.570 -0.000 -0.001 -0.000 -0.000
19887 4 9.131 9.155 10.896 -0.003 -0.013 -0.003 -0.000
16043 4 7.538 0.057 6.157 -0.008 0.001 0.002 0.000
12312 4 0.635 15.351 -4.673 -0.008 -0.004 -0.014 -0.000
9577 4 9.257 1.031 16.326 0.005 0.001 0.000 0.000
4973 4 10.433 10.628 5.711 0.007 0.001 -0.000 -0.000
2513 4 4.941 0.889 14.908 -0.011 0.003 0.010 0.000
11419 4 8.953 4.482 20.515 -0.009 -0.010 0.001 -0.000
5248 4 -4.225 11.779 8.442 0.001 0.008 -0.000 0.000
20478 4 -4.348 -0.646 17.891 -0.000 -0.016 -0.001 0.000
13989 4 -4.618 4.240 9.868 -0.008 0.008 -0.001 0.000
5258 4 -2.623 8.449 -3.803 0.001 -0.006 -0.006 -0.000
5357 4 8.678 6.980 -2.642 -0.004 0.003 0.013 -0.000
19899 4 9.198 10.720 8.543 -0.003 -0.003 -0.000 0.000
1217 4 6.136 -1.899 14.321 0.005 0.003 -0.004 0.000
31953 4 -3.927 7.262 4.586 -0.007 -0.011 0.003 0.000
461 4 10.014 6.227 5.957 0.002 0.009 0.005 -0.000
487 4 10.858 0.633 9.228 -0.011 -0.004 -0.000 -0.000
1753 4 9.865 15.266 -5.005 0.011 0.003 0.006 -0.000
14352 4 8.684 -2.143 -4.148 0.003 -0.004 -0.006 0.000
19282 4 11.710 4.122 -0.909 0.005 -0.003 -0.001 -0.000
10282 4 9.876 9.868 13.469 0.002 0.007 0.007 0.000
24395 4 4.312 -1.292 20.260 -0.007 -0.002 0.003 0.000
10774 4 8.370 2.624 18.931 0.002 -0.001 -0.004 -0.000
5381 4 -1.833 3.131 -4.685 0.009 -0.007 0.000 0.000
575 4 3.915 12.542 -4.129 0.007 -0.002 -0.008 -0.000
6221 4 -2.512 13.558 -0.281 -0.006 -0.004 0.001 -0.000
18931 4 7.688 14.208 7.474 -0.003 -0.013 -0.003 -0.000
1281 4 -4.135 -0.210 1.473 0.008 -0.001 0.003 0.000
27962 4 12.155 2.487 10.585 0.008 -0.013 0.002 0.000
4552 4 11.482 9.895 3.296 -0.007 0.001 -0.007 -0.000
1247 4 -3.766 -2.525 -5.309 0.002 -0.003 0.002 0.000
8732 4 -5.438 -1.868 -0.956 0.000 -0.003 0.000 -0.000
6566 4 12.722 5.248 6.840 -0.007 0.006 -0.002 0.000
16301 4 10.546 7.559 3.420 0.008 0.007 -0.008 0.000
13472 4 11.491 5.661 1.137 0.004 0.001 0.007 0.000
5329 4 -1.997 13.311 19.805 -0.003 0.003 -0.011 0.000
12796 4 -3.808 1.559 13.619 -0.000 0.018 0.005 -0.000
7034 4 -4.659 9.610 3.862 0.001 -0.009 -0.004 -0.000
13143 4 -1.707 7.635 20.594 0.005 -0.007 0.004 0.000
10332 4 10.726 0.382 2.821 -0.017 0.007 -0.002 -0.000
4059 4 -3.381 -1.462 7.702 -0.001 -0.001 0.008 0.000
1667 4 9.089 4.558 14.908 -0.006 0.007 -0.006 0.000
846 4 11.556 -0.749 7.104 -0.005 0.001 -0.013 0.000
4037 4 -4.272 2.083 -5.452 0.002 -0.003 0.007 0.000
2918 4 1.513 15.040 17.219 0.002 -0.001 -0.001 -0.000
16606 4 -1.534 10.718 18.298 -0.004 -0.007 -0.003 0.000
5645 4 8.907 10.627 17.869 0.007 -0.012 -0.005 0.000
18648 4 -4.135 10.081 -1.906 -0.014 -0.005 0.002 -0.000
1659 4 9.170 14.596 4.734 -0.003 -0.001 0.012 0.000
2221 4 3.236 -0.798 14.033 -0.001 -0.004 -0.006 0.000
13479 4 5.974 1.598 -4.159 0.006 0.001 0.011 0.000
4486 4 -3.597 11.689 12.569 0.006 -0.008 0.007 -0.000
14686 4 7.121 -2.038 20.796 -0.005 0.010 -0.003 -0.000
3022 4 11.539 13.541 -3.388 -0.006 -0.004 0.017 0.000
8471 4 3.860 1.247 -4.318 0.003 0.010 0.003 -0.000
3685 4 14.172 3.491 12.047 -0.000 -0.007 0.001 -0.000
5391 4 -1.227 12.475 13.513 -0.004 -0.014 0.003 -0.000
5512 4 2.957 15.041 6.967 0.001 -0.017 0.007 -0.000
24721 4 8.368 -0.217 8.534 0.008 -0.008 0.004 -0.000
11139 4 13.251 8.625 12.669 -0.005 -0.003 -0.005 0.000
5591 4 -4.908 3.507 7.476 -0.005 -0.005 0.004 0.000
2124 4 12.172 3.754 18.625 -0.015 -0.004 -0.007 -0.000
1790 4 13.894 -1.623 7.512 0.002 -0.004 0.007 0.000
19336 4 -3.548 1.793 -0.374 -0.002 0.013 -0.003 0.000
18463 4 9.938 9.452 -5.794 -0.005 0.003 -0.001 0.000
9938 4 4.134 -2.207 15.748 -0.001 0.002 0.012 -0.000
10253 4 10.077 -1.321 17.025 -0.001 0.010 0.001 0.000
10373 4 7.370 -0.472 -0.333 -0.004 0.002 0.006 0.000
2368 4 0.906 8.722 19.910 0.001 0.003 -0.014 -0.000
803 4 4.870 -2.235 3.232 -0.002 0.000 0.000 -0.000
27922 4 12.308 -1.996 19.153 -0.004 -0.012 -0.010 -0.000
27053 4 3.422 -1.258 9.270 -0.008 -0.011 0.006 -0.000
5425 4 -4.419 14.951 1.401 -0.004 -0.002 -0.004 0.000
5877 4 12.860 1.458 2.781 0.003 0.013 -0.003 -0.000
10393 4 12.535 12.503 6.563 -0.003 -0.011 0.010 0.000
9565 4 2.511 13.703 19.307 -0.012 0.013 -0.006 0.000
2498 4 7.974 0.593 20.515 0.003 -0.009 -0.010 0.000
16364 4 -2.192 13.064 2.280 0.009 0.005 0.007 -0.000
2407 4 5.620 8.458 20.568 -0.001 -0.005 -0.001 0.000
27161 4 -1.730 0.339 -4.171 -0.003 0.005 0.011 -0.000
9443 4 0.715 -2.809 4.697 -0.007 -0.005 0.010 0.000
6872 4 -4.638 7.304 -2.954 0.003 0.006 -0.004 -0.000
2699 4 -1.544 2.193 20.698 -0.004 0.006 -0.003 -0.000
1443 4 -3.189 14.780 10.696 -0.001 -0.002 0.002 0.000
19409 4 13.147 3.054 0.838 -0.002 0.003 -0.001 0.000
13577 4 -2.934 10.996 -4.161 0.007 -0.009 0.005 0.000
2924 4 1.034 -1.860 14.837 0.008 -0.003 -0.000 -0.000
3373 4 -2.170 -0.576 16.639 0.009 0.013 0.009 -0.000
3700 4 6.303 9.107 -5.576 0.013 -0.004 -0.009 -0.000
14840 4 8.358 11.235 11.290 -0.008 0.008 0.010 0.000
6255 4 -1.187 14.916 16.227 0.003 -0.005 0.006 0.000
3259 4 12.022 5.961 17.266 0.010 -0.003 -0.001 -0.000
19782 4 13.286 6.786 -0.571 -0.008 0.000 0.004 -0.000
6259 4 -3.747 4.464 -5.037 -0.009 -0.009 0.007 -0.000
9054 4 -0.914 -1.650 8.482 -0.001 0.006 0.004 -0.000
10363 4 14.725 -0.271 14.813 0.003 -0.007 0.002 0.000
17055 4 -0.474 7.151 17.759 0.010 0.003 0.004 0.000
3804 4 6.743 5.521 21.191 0.009 0.003 0.010 -0.000
25968 4 2.896 6.631 -4.453 0.002 -0.015 0.009 0.000
4051 4 0.621 12.848 -5.574 0.003 -0.003 0.002 0.000
1669 4 14.222 0.262 9.731 0.013 -0.005 -0.001 -0.000
30779 4 -3.898 3.954 -0.324 0.002 -0.001 0.007 -0.000
10386 4 9.820 -0.737 11.076 -0.002 0.000 -0.006 -0.000
847 4 12.000 7.876 1.434 -0.006 0.016 -0.007 0.000
23778 4 -3.971 2.696 3.981 0.006 0.005 0.001 0.000
490 4 -4.863 14.556 8.834 0.004 0.005 0.004 -0.000
6673 4 11.031 15.374 11.851 0.013 -0.004 0.003 -0.000
539 4 7.981 7.280 -5.289 -0.004 0.003 0.014 -0.000
4432 4 12.602 -1.437 1.449 -0.008 -0.001 0.005 -0.000
13594 4 10.540 1.099 18.199 -0.001 -0.005 0.001 -0.000
5827 4 0.435 -1.796 19.692 -0.009 0.009 0.001 0.000
809 4 -0.237 1.195 -6.072 0.008 -0.000 0.002 -0.000
7116 4 14.046 11.149 4.698 0.006 -0.014 -0.001 0.000
1364 4 9.957 13.037 9.448 -0.008 -0.009 0.002 -0.000
19371 4 2.525 -2.687 -6.315 -0.006 -0.002 -0.002 -0.000
2133 4 11.201 -1.568 -3.694 0.001 0.013 0.007 0.000
20190 4 7.617 13.879 16.364 -0.001 -0.010 -0.002 0.000
2853 4 11.701 -1.537 9.698 0.001 -0.013 0.007 -0.000
6549 4 4.110 1.500 21.265 0.001 0.006 -0.000 0.000
216 4 13.806 3.617 -3.890 -0.007 -0.009 0.003 -0.000
11689 4 -3.795 1.940 19.022 0.008 0.001 0.009 0.000
1092 4 5.413 14.604 7.862 0.005 0.001 -0.001 0.000
13973 4 -4.007 -0.391 -3.468 0.008 -0.001 0.000 0.000
533 4 2.872 14.474 -6.268 0.006 0.005 -0.006 0.000
3962 4 -4.817 11.793 14.433 0.006 -0.014 -0.000 -0.000
10727 4 5.533 -1.329 10.440 0.006 0.001 0.003 0.000
458 4 5.228 6.224 -5.271 0.003 0.003 0.003 -0.000
18336 4 3.698 15.184 -4.044 -0.001 -0.004 -0.000 0.000
2339 4 10.384 7.470 -4.287 0.003 -0.002 -0.002 0.000
6539 4 10.851 6.720 19.151 0.012 -0.001 0.004 -0.000
16540 4 -3.221 13.623 14.815 -0.011 0.012 -0.007 0.000
13904 4 -5.417 1.068 5.685 -0.006 0.006 0.004 -0.000
11177 4 13.675 2.903 4.999 0.003 -0.010 -0.004 0.000
5081 4 9.090 8.049 21.021 -0.014 0.008 0.004 -0.000
12640 4 -5.546 -1.947 2.766 0.003 0.003 0.002 -0.000
1623 4 13.463 4.785 20.064 0.009 -0.011 0.017 0.000
8060 4 6.750 13.513 -0.793 -0.000 -0.005 -0.004 0.000
9685 4 7.110 -1.860 4.377 -0.003 -0.003 0.008 -0.000
11530 4 0.320 12.683 21.476 -0.002 -0.005 0.012 -0.000
1673 4 12.394 -0.617 4.541 0.001 0.005 0.009 0.000
27211 4 14.180 13.756 4.854 0.007 0.003 0.001 -0.000
580 4 13.547 12.514 -1.806 0.002 0.007 0.013 0.000
924 4 -4.644 14.161 -3.910 0.011 -0.012 -0.002 -0.000
444 4 -3.787 -3.386 1.562 -0.003 -0.008 -0.001 0.000
31430 4 -4.948 8.593 16.124 0.002 -0.004 -0.001 0.000
9131 4 7.718 -2.670 10.039 -0.016 -0.000 -0.002 -0.000
19291 4 13.486 -0.432 -1.002 -0.006 0.015 0.002 -0.000
77 4 8.064 14.168 11.511 -0.003 0.001 0.006 0.000
158 4 11.475 14.908 5.662 -0.002 -0.005 0.003 -0.000
19214 4 9.487 -1.962 6.385 -0.002 0.006 -0.008 -0.000
817 4 13.489 -1.059 -3.322 0.010 -0.003 0.002 0.000