ITEM: TIMESTEP
35000
ITEM: NUMBER OF ATOMS
32000
ITEM: BOX BOUNDS pp pp pp
-5.177746 75.657746
-4.583606 75.063606
-5.552374 76.032374
ITEM: ATOMS id type x y z vx vy vz q
488 4 1.262 10.776 5.256 -0.006 0.014 -0.003 0.000
531 4 1.355 8.402 15.536 -0.008 0.008 -0.007 -0.000
1646 4 10.189 1.184 12.203 -0.001 0.005 0.001 -0.000
1651 4 -1.058 3.547 0.573 -0.014 0.008 0.001 -0.000
1655 4 0.220 4.960 11.660 -0.001 0.008 0.011 0.000
1689 4 12.298 3.949 13.197 0.007 -0.000 -0.000 -0.000
1690 4 8.871 6.662 5.876 0.011 0.014 0.006 -0.000
1767 4 7.794 12.236 14.490 -0.001 -0.000 -0.004 -0.000
2412 4 -1.274 13.002 16.543 0.005 -0.001 0.005 -0.000
2525 4 9.899 6.796 11.266 0.000 -0.000 -0.004 0.000
2528 4 11.463 -0.351 7.459 -0.002 0.004 0.006 -0.000
2573 4 9.581 9.954 3.595 0.004 0.007 -0.004 0.000
163 4 -3.263 2.887 -4.501 -0.001 -0.005 -0.005 -0.000
1365 4 10.352 9.338 -1.146 0.000 -0.000 -0.003 0.000
9974 4 9.606 0.399 1.192 -0.005 0.006 -0.010 0.000
9565 4 3.467 13.227 16.775 -0.000 0.004 -0.006 0.000
19736 4 4.655 11.640 11.898 -0.002 -0.011 -0.003 -0.000
19682 4 12.354 -0.036 -5.055 0.009 -0.007 0.006 0.000
2643 4 5.222 10.093 14.261 -0.002 0.002 0.003 0.000
6480 4 -0.952 0.885 0.841 -0.003 -0.008 0.000 0.000
1653 4 -1.517 2.326 3.065 0.003 0.001 0.005 -0.000
1282 4 3.499 12.090 5.248 0.007 -0.005 -0.008 0.000
19408 4 2.830 3.241 11.741 -0.007 0.003 -0.001 -0.000
565 4 8.380 5.038 2.191 -0.010 -0.001 -0.008 0.000
5360 4 2.763 -1.168 13.990 0.004 -0.013 0.004 0.000
19490 4 -1.385 8.512 3.252 0.001 0.006 0.001 0.000
900 4 4.375 0.403 15.046 0.001 -0.001 -0.003 -0.000
19217 4 5.788 2.179 16.385 -0.005 -0.001 -0.003 -0.000
19730 4 0.618 10.855 11.345 0.003 0.009 -0.008 0.000
23469 4 5.089 4.331 4.766 0.011 -0.002 0.003 -0.000
490 4 1.722 8.865 3.286 0.002 -0.006 0.007 -0.000
19282 4 1.941 6.403 1.613 -0.005 -0.005 0.002 -0.000
85 4 2.334 7.540 7.096 -0.002 -0.000 -0.006 0.000
4955 4 10.924 11.843 15.169 -0.009 0.003 -0.012 0.000
1401 4 0.670 14.008 10.508 0.001 -0.011 0.001 0.000
6119 4 1.521 0.894 15.239 0.009 0.006 -0.007 0.000
1766 4 -0.322 2.807 14.958 0.007 -0.004 0.015 0.000
2126 4 -1.687 7.392 5.581 0.002 0.007 0.006 0.000
4232 4 6.617 4.289 -0.525 0.000 0.004 0.010 -0.000
404 4 -1.014 10.293 6.344 0.010 -0.002 -0.003 0.000
23632 4 -1.315 0.855 10.658 -0.001 0.011 -0.005 0.000
575 4 2.741 12.358 7.503 -0.001 -0.002 0.004 -0.000
19689 4 -1.593 5.419 3.783 -0.016 -0.001 -0.009 -0.000
281 4 10.385 -3.310 -2.059 -0.008 0.011 0.013 -0.000
3307 4 3.472 -2.054 7.955 -0.003 0.004 -0.013 -0.000
8644 4 9.687 2.745 15.358 -0.007 -0.002 0.002 -0.000
526 4 10.603 6.130 13.614 0.001 -0.000 -0.006 -0.000
18442 4 5.994 -0.706 5.892 -0.017 0.005 -0.007 0.000
4995 4 -0.891 4.776 9.170 0.000 -0.008 0.007 -0.000
10374 4 6.448 5.476 7.683 -0.006 0.003 0.000 -0.000
4517 4 7.104 3.014 2.299 -0.000 0.009 0.012 -0.000
8374 4 6.527 1.988 -2.352 0.007 0.005 -0.012 -0.000
1012 4 6.350 -2.602 2.462 -0.007 -0.005 -0.003 0.000
1096 4 0.322 8.286 1.456 -0.002 0.001 -0.004 0.000
949 4 3.520 9.269 5.579 -0.002 -0.005 -0.007 0.000
2007 4 0.593 2.504 9.791 0.003 0.002 -0.005 0.000
2498 4 0.302 2.333 12.544 -0.011 -0.003 0.002 -0.000
648 4 4.432 8.708 2.989 0.002 -0.006 -0.004 0.000
2860 4 6.218 6.588 -1.407 0.021 0.014 0.012 -0.000
3260 4 3.281 11.349 14.663 0.001 -0.006 0.008 -0.000
496 4 -2.836 9.061 6.690 0.000 0.008 0.020 0.000
23707 4 1.780 5.390 5.495 0.002 -0.008 -0.002 0.000
1220 4 6.664 3.752 14.546 -0.002 0.000 0.011 -0.000
2215 4 1.593 0.805 4.792 0.003 0.003 0.003 0.000
10684 4 -3.633 6.744 3.501 -0.001 -0.001 -0.011 0.000
202 4 3.412 2.449 8.436 0.001 0.002 0.007 0.000
13199 4 6.625 0.008 10.169 0.007 -0.002 0.005 -0.000
844 4 -0.482 7.870 8.163 0.007 0.003 0.001 0.000
9122 4 13.711 -1.708 9.622 0.005 -0.007 -0.000 0.000
4074 4 5.719 3.259 6.783 -0.001 0.001 0.004 0.000
23831 4 8.492 14.072 3.118 0.016 -0.009 -0.005 0.000
19771 4 8.955 0.077 8.564 0.000 -0.014 0.001 -0.000
3365 4 6.002 2.464 9.066 0.000 0.005 -0.001 -0.000
1367 4 -1.787 3.444 11.234 0.004 -0.012 0.002 -0.000
13152 4 3.641 5.086 7.505 0.004 0.010 -0.002 -0.000
146 4 -1.656 10.277 1.010 0.005 -0.005 0.001 -0.000
445 4 11.576 0.841 -0.067 0.013 -0.000 -0.007 -0.000
4552 4 5.156 11.972 9.009 -0.012 -0.005 0.004 -0.000
9972 4 12.520 3.373 4.244 -0.010 -0.000 0.001 -0.000
19734 4 -2.785 5.155 -0.020 -0.002 0.008 -0.001 0.000
10334 4 9.390 11.185 12.697 0.008 0.000 0.004 0.000
6067 4 -1.275 7.550 15.475 0.002 -0.004 -0.003 -0.000
170 4 0.475 9.411 -2.977 0.002 0.002 0.002 0.000
9487 4 7.140 -0.788 0.087 -0.009 0.000 -0.014 -0.000
469 4 14.654 8.852 4.737 0.015 0.005 -0.010 -0.000
13597 4 9.344 2.601 4.026 0.005 -0.007 0.007 -0.000
1801 4 7.491 7.484 3.529 0.006 -0.002 0.003 0.000
7718 4 0.772 9.212 17.876 -0.004 -0.003 0.002 -0.000
8731 4 1.029 -2.078 6.735 -0.010 0.004 -0.001 0.000
1807 4 -0.458 5.348 6.713 -0.011 -0.005 0.003 0.000
23799 4 6.588 8.117 7.893 0.007 0.010 -0.005 -0.000
9125 4 -2.308 -0.741 5.452 -0.011 -0.009 -0.003 -0.000
18934 4 4.169 1.120 -3.770 0.002 0.010 0.003 -0.000
16297 4 8.240 6.000 13.717 -0.006 -0.001 0.007 0.000
6029 4 -4.193 -0.329 9.327 0.002 0.007 -0.002 0.000
12360 4 -3.114 4.357 2.273 0.010 -0.007 -0.000 0.000
208 4 10.276 7.010 -0.307 0.002 -0.012 0.002 0.000
18852 4 5.754 5.991 2.880 0.003 -0.013 -0.005 -0.000
19667 4 1.749 7.068 -1.183 -0.001 -0.004 -0.002 -0.000
214 4 1.263 1.734 2.141 -0.004 0.014 0.001 -0.000
894 4 11.077 3.156 -1.173 0.003 -0.000 0.003 -0.000
2086 4 6.596 11.624 -4.043 0.001 -0.004 -0.004 0.000
2981 4 8.137 2.965 13.077 0.001 -0.000 0.005 0.000
9529 4 8.938 1.279 -0.988 0.003 -0.011 0.006 -0.000
6589 4 2.975 9.365 12.797 -0.012 0.004 -0.010 -0.000
9583 4 9.944 7.131 3.619 -0.006 0.011 -0.002 -0.000
9884 4 5.021 4.740 10.285 -0.002 -0.006 0.012 -0.000
1324 4 -4.201 -3.985 19.429 -0.000 0.001 0.008 0.000
10774 4 13.661 0.253 15.847 -0.003 0.002 0.006 -0.000
2169 4 -0.448 1.137 19.587 0.004 -0.001 -0.006 0.000
5315 4 9.395 14.943 17.791 0.003 0.007 0.009 -0.000
603 4 -3.749 8.993 2.192 -0.009 0.007 0.003 0.000
892 4 -1.247 2.248 8.283 -0.009 -0.008 0.002 0.000
614 4 0.251 6.569 3.525 0.008 -0.005 0.000 -0.000
1330 4 11.451 2.298 16.799 -0.003 0.004 0.005 0.000
10296 4 3.860 4.912 16.298 -0.002 -0.015 0.006 -0.000
1734 4 6.092 9.152 17.284 0.006 0.004 0.003 -0.000
19774 4 7.970 8.237 -1.012 0.001 -0.007 0.002 -0.000
9966 4 8.234 -1.027 13.930 0.002 -0.003 -0.000 0.000
1830 4 10.975 0.531 -2.311 -0.001 0.003 -0.004 0.000
7035 4 5.277 12.730 14.582 0.003 -0.002 -0.006 0.000
4480 4 2.436 5.534 12.744 -0.003 0.004 0.001 -0.000
3801 4 11.064 1.310 9.949 0.002 -0.002 0.002 0.000
2093 4 4.436 7.203 8.770 -0.004 -0.008 0.019 -0.000
8698 4 -2.833 -2.756 9.273 -0.001 0.004 0.015 0.000
19782 4 5.588 13.297 3.185 -0.000 -0.010 -0.001 0.000
23396 4 0.989 2.223 7.202 -0.005 -0.008 0.003 -0.000
7503 4 3.710 9.295 16.047 0.002 -0.005 0.000 0.000
528 4 9.129 7.059 8.740 0.002 -0.003 0.005 0.000
6225 4 8.899 -0.908 11.236 -0.005 0.001 -0.000 0.000
1135 4 -0.519 8.256 -0.827 0.009 0.008 -0.002 -0.000
201 4 0.385 10.263 -0.075 0.001 -0.002 -0.002 -0.000
2853 4 4.822 11.429 16.903 -0.002 -0.005 0.007 -0.000
1777 4 8.729 9.225 10.524 -0.008 0.012 0.003 -0.000
16004 4 -2.898 -0.532 15.188 0.002 0.003 -0.003 0.000
18567 4 9.961 -1.248 -0.512 -0.008 0.003 0.001 -0.000
4598 4 14.518 -2.161 17.148 0.005 0.001 0.007 -0.000
6476 4 10.932 9.232 13.966 0.009 -0.000 -0.001 -0.000
217 4 0.727 8.260 5.688 0.002 0.001 0.014 0.000
27169 4 -0.903 2.671 -3.305 0.009 0.010 -0.005 0.000
11168 4 0.657 3.503 4.921 -0.003 0.010 0.002 -0.000
22436 4 10.838 -3.168 6.280 -0.013 0.001 0.000 -0.000
173 4 9.010 2.353 8.216 0.004 0.013 -0.005 0.000
539 4 5.552 10.893 4.616 -0.002 -0.006 -0.016 0.000
23635 4 4.512 7.545 11.266 -0.009 -0.003 -0.006 -0.000
10740 4 12.709 9.587 7.763 -0.001 0.003 -0.014 0.000
8323 4 13.695 -0.627 0.774 0.000 -0.000 -0.002 -0.000
855 4 2.530 8.377 1.007 0.009 -0.006 0.004 -0.000
3048 4 1.365 9.787 7.919 -0.001 -0.000 0.006 -0.000
1221 4 8.154 11.436 2.249 0.006 -0.006 -0.010 -0.000
5753 4 7.820 13.387 17.099 0.006 0.006 0.002 -0.000
19738 4 5.002 8.384 0.005 0.002 0.011 0.002 -0.000
2811 4 7.907 2.123 18.057 -0.004 -0.005 -0.005 -0.000
2103 4 8.223 2.010 10.468 0.004 -0.004 -0.003 0.000
5473 4 -0.665 12.626 0.390 0.000 0.000 -0.001 0.000
6878 4 2.325 0.397 7.673 -0.003 0.005 0.003 0.000
1011 4 -1.588 8.634 17.809 0.005 -0.002 0.003 0.000
3830 4 9.741 8.998 6.238 -0.001 -0.008 0.009 -0.000
6872 4 -2.207 1.988 -1.021 -0.003 -0.002 0.011 0.000
444 4 4.740 -0.425 8.308 0.007 -0.004 -0.006 0.000
1881 4 0.971 8.792 10.167 -0.004 -0.003 -0.004 0.000
2931 4 -2.860 2.083 13.883 -0.000 -0.007 0.011 0.000
2647 4 6.409 1.804 4.771 -0.004 0.004 -0.007 -0.000
6427 4 -3.696 8.767 9.208 -0.002 -0.006 0.003 -0.000
23813 4 -2.626 12.892 2.010 0.005 -0.008 -0.000 -0.000
2132 4 12.018 2.311 -3.793 -0.004 0.012 -0.010 0.000
1364 4 -1.687 9.594 13.705 -0.004 -0.004 0.015 0.000
8326 4 -1.582 -1.698 13.311 0.006 0.007 0.014 0.000
4599 4 7.065 7.006 0.868 0.002 -0.007 -0.004 -0.000
23835 4 2.176 6.527 -4.244 -0.000 -0.007 -0.005 0.000
5235 4 1.483 4.426 8.272 -0.002 0.002 -0.001 0.000
1249 4 10.947 10.877 1.594 -0.009 0.001 -0.012 0.000
424 4 12.959 2.957 10.220 0.002 0.008 -0.001 -0.000
4476 4 9.492 0.574 16.782 0.003 -0.006 0.010 0.000
1611 4 -2.142 0.324 17.525 0.003 0.003 -0.003 0.000
13143 4 -1.366 5.078 16.485 0.000 0.003 0.003 -0.000
1644 4 13.133 7.849 6.598 -0.006 -0.000 -0.003 0.000
17343 4 7.743 9.200 5.189 -0.003 -0.007 0.001 0.000
1702 4 -2.479 4.170 -2.735 -0.002 0.004 -0.000 0.000
12796 4 2.696 3.098 6.094 0.002 -0.007 0.004 0.000
1657 4 14.132 2.075 17.431 -0.012 0.002 -0.012 -0.000
12396 4 2.362 12.941 12.730 -0.009 -0.006 -0.015 0.000
1765 4 9.482 11.104 17.621 0.002 -0.006 0.002 0.000
1246 4 -0.299 -0.023 6.164 0.005 0.005 0.004 0.000
1683 4 4.411 4.391 18.364 0.002 0.002 -0.000 0.000
27579 4 0.621 4.272 2.506 -0.015 -0.008 -0.003 0.000
863 4 10.765 4.293 17.912 0.007 -0.001 0.001 0.000
9533 4 2.997 -1.268 11.237 0.009 -0.004 -0.001 0.000
6824 4 6.500 13.138 11.863 -0.004 0.012 0.012 0.000
16513 4 7.004 10.342 12.609 0.010 0.011 0.005 0.000
1057 4 2.275 11.858 -2.499 0.005 -0.001 0.002 0.000
6996 4 -0.845 0.371 14.412 -0.004 0.017 0.007 0.000
19376 4 6.774 9.236 2.049 -0.004 -0.005 0.008 -0.000
12393 4 8.568 4.792 11.372 -0.015 0.001 0.008 -0.000
3421 4 3.576 9.733 10.049 0.001 -0.008 0.012 0.000
3435 4 8.852 8.335 12.916 -0.008 -0.003 0.002 -0.000
2422 4 8.769 9.996 15.100 0.000 -0.001 -0.000 -0.000
28 4 11.598 14.274 -1.807 -0.011 0.000 0.004 -0.000
13116 4 3.355 2.762 14.805 -0.013 0.002 0.010 0.000
6953 4 -3.946 1.900 9.472 -0.012 -0.002 0.006 -0.000
525 4 6.864 6.752 9.838 -0.008 0.002 -0.013 -0.000
2087 4 4.508 3.293 2.418 -0.005 -0.011 -0.005 0.000
133 4 7.570 4.227 4.775 -0.001 -0.003 -0.001 -0.000
9028 4 11.639 -3.478 13.617 0.002 0.004 0.006 0.000
13479 4 4.435 -1.293 0.780 0.004 -0.000 -0.002 -0.000
22957 4 -0.381 -0.400 -1.631 -0.003 -0.010 0.005 0.000
8965 4 5.164 2.068 0.075 0.012 -0.002 -0.014 -0.000
5789 4 0.264 -4.316 7.580 0.001 0.000 -0.003 -0.000
10758 4 9.744 -4.338 15.680 -0.002 0.004 -0.004 0.000
505 4 6.298 9.713 10.073 -0.006 -0.003 0.010 -0.000
7072 4 0.091 1.362 17.035 -0.007 -0.003 0.015 0.000
1409 4 7.706 1.182 15.177 -0.002 -0.002 0.001 0.000
9886 4 0.181 -1.378 10.905 0.001 -0.006 -0.003 -0.000
564 4 2.667 4.020 1.012 0.018 -0.000 0.002 -0.000
401 4 -4.413 -1.143 7.275 0.006 -0.003 -0.007 -0.000
8331 4 11.983 -1.957 -3.562 -0.008 -0.001 -0.005 0.000
10305 4 7.505 -3.493 -2.641 -0.007 -0.002 0.013 -0.000
1329 4 14.146 12.409 3.159 0.007 -0.004 -0.003 -0.000
1721 4 -2.067 3.207 5.585 -0.001 -0.001 0.004 -0.000
4313 4 2.669 12.383 10.186 0.002 0.005 0.010 -0.000
571 4 9.190 -2.310 7.696 -0.001 0.008 0.003 0.000
7019 4 -4.520 5.258 20.379 -0.015 -0.008 0.001 0.000
1443 4 10.509 11.546 5.208 0.002 -0.013 0.007 0.000
6539 4 0.919 10.446 13.925 0.003 0.007 -0.005 0.000
1723 4 8.502 12.830 19.149 0.001 0.008 0.007 0.000
19342 4 10.981 6.537 6.858 -0.002 -0.011 -0.003 0.000
16555 4 7.232 11.220 16.962 -0.005 0.003 -0.000 0.000
2124 4 1.873 0.687 10.818 -0.001 0.008 -0.008 0.000
6951 4 3.765 14.653 19.211 -0.000 -0.001 0.007 0.000
3264 4 11.716 9.032 11.533 -0.006 0.006 -0.009 0.000
1336 4 4.694 7.233 6.210 0.007 0.010 -0.002 0.000
27917 4 10.108 1.396 6.211 0.004 0.003 -0.002 0.000
2526 4 1.330 13.883 15.304 0.007 -0.001 -0.009 -0.000
27690 4 4.780 -2.101 4.307 -0.001 -0.002 0.006 -0.000
2418 4 7.962 -3.131 10.820 -0.005 0.000 0.002 0.000
1774 4 8.031 4.770 9.158 0.001 -0.011 -0.006 -0.000
1414 4 3.049 12.438 19.129 0.012 0.000 0.011 -0.000
5463 4 3.104 10.224 18.108 -0.003 0.003 0.009 -0.000
5068 4 1.675 11.288 16.554 -0.004 -0.004 -0.006 -0.000
5000 4 5.010 6.235 -4.236 -0.004 -0.009 0.009 0.000
16412 4 11.979 2.007 19.846 -0.001 -0.002 -0.004 0.000
1608 4 5.128 13.440 20.967 0.001 -0.002 -0.005 -0.000
18647 4 -3.098 13.007 -0.469 0.001 0.003 -0.004 -0.000
6550 4 11.392 7.869 9.339 0.002 -0.006 0.005 -0.000
697 4 14.342 1.048 8.305 -0.006 -0.002 0.004 0.000
6154 4 6.411 -2.647 12.324 0.009 -0.001 0.017 -0.000
573 4 6.037 9.574 -2.497 0.011 -0.001 -0.001 -0.000
6673 4 5.445 5.051 12.879 0.001 -0.001 -0.004 0.000
178 4 9.907 10.413 8.656 0.006 0.001 0.002 0.000
19686 4 -4.199 11.187 3.632 -0.004 -0.005 0.002 0.000
1216 4 11.485 -1.474 1.754 0.015 0.007 0.011 -0.000
3685 4 11.295 9.368 18.655 0.008 0.004 0.004 -0.000
58 4 10.866 12.303 10.072 0.011 -0.004 0.007 0.000
5523 4 12.211 7.985 16.613 0.016 0.000 -0.005 -0.000
3366 4 5.073 2.217 13.335 -0.003 0.005 -0.002 0.000
9961 4 -4.231 1.471 3.636 -0.002 0.004 0.005 -0.000
2187 4 11.325 13.468 0.674 0.002 0.010 0.002 0.000
1708 4 8.973 13.302 7.772 0.006 0.002 -0.004 0.000
19488 4 4.640 12.361 -3.787 0.001 0.015 -0.001 -0.000
5631 4 4.125 7.468 14.691 0.001 -0.003 0.002 -0.000
5267 4 0.806 11.006 19.637 -0.005 -0.008 -0.004 -0.000
2462 4 6.699 4.205 17.071 0.005 0.004 -0.006 -0.000
27566 4 0.390 6.016 0.226 0.012 -0.001 0.003 -0.000
2427 4 14.682 12.231 17.662 0.004 -0.011 0.004 0.000
18496 4 5.410 11.730 1.067 -0.005 0.010 0.011 0.000
447 4 -2.882 8.352 -0.654 0.008 -0.002 0.008 0.000
5359 4 -0.279 3.628 18.408 -0.011 -0.008 -0.003 -0.000
2265 4 11.535 12.813 7.265 -0.001 -0.007 0.000 0.000
15594 4 1.246 5.780 17.227 0.001 0.004 0.005 0.000
19223 4 5.089 -0.611 -1.742 -0.007 0.005 0.001 -0.000
31014 4 -0.327 -0.243 3.467 -0.008 -0.002 0.008 0.000
1206 4 3.584 6.674 3.980 -0.006 0.004 0.005 0.000
5221 4 4.283 1.400 10.591 -0.011 0.009 -0.002 -0.000
3246 4 2.384 2.784 17.276 -0.004 -0.003 0.004 -0.000
19702 4 3.130 3.168 -1.328 -0.004 -0.001 0.002 0.000
9573 4 13.506 1.227 5.412 0.001 0.008 0.004 -0.000
8682 4 6.839 8.268 14.105 0.003 0.002 -0.008 0.000
13194 4 2.547 5.874 10.260 -0.004 -0.003 -0.002 0.000
1735 4 9.082 2.975 0.713 -0.001 0.005 -0.000 -0.000
3858 4 14.026 12.337 7.253 0.003 -0.002 -0.003 -0.000
10573 4 7.889 0.439 2.756 -0.002 0.008 0.008 -0.000
2185 4 6.442 3.068 11.409 0.001 -0.000 -0.004 -0.000
20276 4 2.762 4.116 19.900 -0.016 0.011 -0.006 -0.000
9164 4 13.250 6.273 -3.961 -0.005 -0.014 0.008 0.000
2506 4 14.352 1.508 0.189 0.005 0.004 0.003 0.000
3678 4 10.884 4.323 10.943 0.005 -0.008 0.008 0.000
7471 4 -1.392 10.483 16.386 0.001 -0.002 0.000 -0.000
4198 4 -0.711 -2.581 3.782 0.006 0.008 0.007 0.000
6472 4 6.048 -1.442 14.915 -0.013 0.001 -0.006 -0.000
4910 4 -1.732 12.219 8.056 -0.005 -0.002 0.002 -0.000
16043 4 0.400 -1.549 15.643 0.004 -0.002 0.002 0.000
6545 4 0.286 -3.031 13.239 0.005 0.005 -0.006 0.000
1285 4 -1.833 14.646 -2.846 0.003 -0.004 0.001 0.000
1701 4 9.093 8.571 1.716 0.005 0.007 0.001 0.000
19267 4 1.535 12.481 0.162 -0.010 0.004 -0.002 0.000
1814 4 2.353 13.705 3.148 0.001 -0.001 0.008 0.000
10768 4 -2.350 -0.215 8.168 -0.011 0.006 0.010 -0.000
19309 4 3.567 5.543 -2.538 -0.001 -0.001 0.003 -0.000
3774 4 2.016 1.671 19.583 0.002 0.001 0.013 -0.000
11888 4 9.147 -1.711 16.095 -0.007 0.002 0.003 -0.000
16893 4 1.241 -0.397 1.042 0.008 -0.003 -0.002 0.000
31200 4 -2.955 4.208 7.818 -0.008 -0.001 -0.005 0.000
55 4 14.512 3.132 12.341 -0.002 -0.000 0.003 0.000
5516 4 -3.903 11.321 0.931 -0.004 -0.002 0.003 0.000
19264 4 9.530 12.972 -1.563 -0.009 -0.008 0.005 -0.000
1829 4 7.552 14.808 1.053 0.006 0.011 0.001 -0.000
3425 4 10.877 13.498 12.774 -0.003 -0.008 0.006 0.000
2867 4 9.785 4.495 7.503 -0.001 0.004 -0.013 -0.000
5990 4 -0.460 12.716 12.777 -0.004 0.010 -0.010 -0.000
19201 4 -1.306 6.141 -1.331 -0.009 -0.001 -0.004 -0.000
1609 4 10.986 4.856 0.957 0.013 -0.001 -0.002 -0.000
19406 4 2.319 -1.499 -1.707 -0.008 0.010 -0.001 0.000
12355 4 -2.731 -2.846 -0.814 -0.007 -0.009 0.001 0.000
1693 4 11.511 0.904 2.892 0.007 0.002 -0.003 -0.000
1643 4 4.784 -0.723 17.060 -0.005 0.012 -0.011 0.000
851 4 10.880 -1.353 9.649 0.004 0.005 -0.000 -0.000
7073 4 2.426 -1.306 19.439 0.002 -0.009 0.002 0.000
2098 4 12.779 -0.063 20.732 0.002 0.014 -0.004 -0.000
2524 4 -3.858 9.467 18.822 -0.001 0.009 0.004 0.000
4478 4 -1.355 -3.378 11.111 0.002 0.006 -0.014 -0.000
806 4 -2.528 6.634 8.121 0.006 0.007 -0.000 0.000
602 4 4.139 11.446 2.716 -0.006 -0.007 0.007 -0.000
6549 4 4.754 -2.957 20.695 0.013 0.001 -0.002 0.000
20079 4 6.090 6.359 16.379 -0.004 0.007 -0.008 0.000
26733 4 1.595 1.689 -2.856 -0.001 -0.002 -0.006 0.000
6911 4 0.514 -0.274 13.023 0.007 0.013 0.000 0.000
3608 4 11.317 -1.071 4.737 -0.004 -0.008 0.002 0.000
493 4 4.004 6.159 -0.098 -0.007 -0.004 0.000 0.000
46 4 0.568 5.000 -2.743 -0.002 -0.003 0.005 0.000
81 4 -1.059 8.745 19.969 0.005 0.007 -0.008 0.000
11869 4 11.063 4.358 15.352 0.006 -0.006 -0.012 0.000
11089 4 11.848 -0.827 11.848 0.008 0.000 -0.004 0.000
129 4 4.490 9.669 7.718 0.012 -0.003 -0.006 -0.000
7233 4 13.524 0.542 10.606 0.006 -0.008 0.005 0.000
1098 4 7.485 11.020 7.912 -0.002 0.005 0.003 -0.000
5760 4 -3.794 6.769 14.714 -0.006 0.008 -0.001 0.000
27966 4 -2.078 14.501 5.285 0.005 -0.004 -0.006 0.000
20669 4 10.328 0.426 19.467 0.002 0.006 -0.002 -0.000
5070 4 0.317 5.661 20.608 0.001 0.005 -0.003 0.000
5674 4 0.554 8.276 13.071 0.009 0.002 0.012 0.000
13958 4 -4.502 4.554 4.040 -0.003 -0.003 0.006 -0.000
2817 4 2.538 0.459 17.544 -0.000 -0.002 0.007 0.000
1004 4 12.795 4.760 -1.882 -0.004 0.003 -0.002 0.000
2221 4 0.553 -0.819 18.445 0.003 0.003 0.004 0.000
4592 4 -1.379 10.401 9.271 0.007 -0.000 -0.003 -0.000
19645 4 3.482 0.447 3.704 -0.011 -0.003 0.005 0.000
487 4 2.681 9.524 -1.363 0.009 0.001 0.002 0.000
19699 4 10.400 4.879 4.079 0.004 0.005 0.005 -0.000
18845 4 -1.600 4.262 13.517 0.016 -0.004 0.001 -0.000
20593 4 7.126 -1.105 17.724 0.002 0.002 -0.001 0.000
18924 4 -1.487 6.601 1.652 0.002 0.001 -0.004 -0.000
1210 4 -3.438 6.607 -2.585 0.005 0.005 -0.006 0.000
6987 4 9.960 7.464 15.325 -0.001 -0.001 0.002 0.000
10698 4 2.857 1.222 12.976 0.002 0.001 0.002 -0.000
6583 4 -2.973 2.731 19.087 -0.002 -0.005 0.006 -0.000
19244 4 2.569 3.561 3.533 -0.005 -0.006 -0.002 -0.000
18018 4 11.447 8.192 5.010 0.008 0.006 0.002 0.000
59 4 14.071 -1.458 3.071 0.003 0.000 0.001 -0.000
6024 4 -4.774 -1.068 4.136 -0.004 -0.000 0.002 -0.000
2631 4 7.382 15.237 19.753 0.004 0.011 0.003 -0.000
1284 4 5.021 8.557 19.490 -0.005 0.003 0.012 0.000
18162 4 10.325 -3.867 -4.425 -0.000 -0.004 -0.006 0.000
27524 4 -3.908 5.267 -4.746 0.001 0.005 0.015 0.000
1404 4 8.203 7.942 17.029 0.003 -0.003 0.003 0.000
7342 4 -1.336 -4.105 21.316 -0.011 -0.002 0.001 0.000
19764 4 -2.491 9.167 -2.911 -0.003 0.003 0.000 0.000
410 4 8.730 -1.976 1.727 0.006 0.001 0.012 -0.000
9124 4 9.080 2.346 20.226 -0.002 -0.001 0.001 0.000
6100 4 -2.642 12.424 14.469 0.009 0.004 -0.006 0.000
4428 4 5.652 0.175 2.674 -0.015 0.002 -0.010 0.000
2483 4 9.543 13.931 5.257 -0.010 -0.004 -0.000 0.000
18861 4 3.061 10.788 0.539 -0.007 -0.012 0.023 -0.000
6913 4 5.442 11.050 19.631 0.010 0.001 0.005 0.000
5464 4 -1.569 11.306 18.514 -0.007 -0.003 -0.013 0.000
8967 4 0.653 1.722 -0.507 0.004 0.002 0.001 0.000
11896 4 13.233 1.043 13.094 0.014 -0.012 -0.011 0.000
6470 4 -0.173 0.064 8.635 0.011 0.011 0.006 0.000
23478 4 -1.717 8.022 10.821 0.006 0.008 -0.004 0.000
9552 4 12.234 -2.030 -0.594 0.007 -0.005 -0.005 0.000
3284 4 9.136 4.860 20.334 0.002 0.012 -0.015 -0.000
2521 4 6.574 3.489 19.778 -0.009 -0.000 -0.001 -0.000
19785 4 2.694 -3.367 0.210 -0.013 -0.005 -0.005 -0.000
2152 4 12.581 5.701 2.574 0.002 0.004 0.002 0.000
19656 4 11.658 2.456 1.517 -0.006 0.006 -0.003 -0.000
3645 4 -2.631 -1.558 19.445 0.003 -0.007 -0.002 0.000
9252 4 -3.415 1.738 1.246 0.002 0.013 -0.003 -0.000
1051 4 7.993 10.386 -0.021 0.006 -0.005 0.008 -0.000
19743 4 13.308 7.964 2.547 0.001 0.001 -0.006 0.000
16110 4 12.997 12.264 19.239 0.003 -0.001 -0.000 -0.000
7837 4 3.770 7.188 17.964 0.003 -0.010 0.010 -0.000
473 4 12.771 6.645 0.197 0.002 0.004 0.011 -0.000
26340 4 4.778 -3.256 -1.749 -0.000 0.008 0.003 0.000
1276 4 9.386 -0.609 5.992 0.012 0.002 0.002 -0.000
1695 4 11.807 -3.447 17.903 -0.002 0.009 0.002 -0.000
1271 4 12.328 11.122 16.917 0.009 0.004 0.009 -0.000
5711 4 -1.081 -2.054 1.128 -0.008 0.007 -0.014 -0.000
13115 4 -1.567 -2.819 6.688 0.001 -0.007 0.012 -0.000
2095 4 12.617 6.803 11.815 -0.003 -0.002 -0.003 -0.000
1607 4 13.282 -2.775 5.785 0.001 0.014 -0.011 -0.000
1291 4 12.150 10.366 3.638 -0.007 0.005 0.005 -0.000
6116 4 -3.073 -0.467 11.860 0.003 -0.009 0.002 -0.000
3521 4 5.310 -0.801 19.564 -0.002 -0.003 -0.002 -0.000
11454 4 -3.988 5.128 17.758 0.016 -0.007 0.003 -0.000
2415 4 12.654 -0.709 18.054 0.002 -0.004 0.000 0.000
2814 4 11.903 -3.529 21.053 -0.010 0.007 0.008 0.000
1809 4 13.955 -0.794 7.225 -0.004 0.004 0.000 0.000
6717 4 1.616 7.946 19.727 -0.004 -0.003 0.003 0.000
655 4 14.487 12.128 -0.125 -0.002 0.004 -0.000 -0.000
3362 4 7.639 7.024 19.670 0.001 0.007 -0.004 0.000
19253 4 7.626 -0.897 -2.380 -0.008 0.002 0.001 0.000
60 4 14.020 1.326 2.812 -0.006 -0.009 0.003 0.000
3401 4 5.845 13.339 18.422 -0.004 -0.012 -0.018 -0.000
1251 4 4.437 1.248 6.195 -0.004 0.001 0.008 -0.000
2857 4 0.242 6.253 14.217 -0.004 0.002 0.001 -0.000
2516 4 7.991 11.805 4.760 -0.002 -0.007 -0.003 -0.000
11147 4 4.993 -0.578 12.570 0.004 -0.001 -0.003 0.000
1783 4 10.810 13.162 -3.954 -0.003 -0.006 0.002 0.000
897 4 3.296 1.212 1.337 0.002 -0.002 0.004 0.000
5343 4 -0.889 13.621 19.659 0.004 -0.005 -0.005 -0.000
10730 4 4.659 1.877 19.166 -0.004 0.005 0.008 -0.000
1455 4 14.497 0.096 -3.879 -0.009 0.001 0.002 0.000
5060 4 -4.442 11.353 12.235 0.002 -0.001 0.007 0.000
5878 4 7.711 13.673 -3.530 -0.004 -0.004 -0.009 -0.000
27926 4 3.091 0.892 -1.338 0.015 0.008 0.013 0.000
1331 4 7.641 0.463 19.725 0.008 0.010 -0.005 -0.000
2133 4 3.389 -0.745 5.722 -0.009 -0.003 -0.017 0.000
24288 4 -3.942 -2.757 12.482 0.005 0.007 0.007 -0.000
5387 4 -3.227 6.395 10.817 0.002 0.002 0.001 0.000
19806 4 6.859 12.774 -0.843 0.003 0.000 0.002 -0.000
2118 4 8.026 11.593 10.429 -0.003 0.008 -0.009 -0.000
1179 4 10.952 6.932 -2.425 -0.010 0.000 0.005 -0.000
2729 4 -2.078 10.775 11.522 0.010 0.002 0.003 0.000
2535 4 14.438 8.945 11.981 -0.005 -0.006 -0.002 -0.000
11066 4 13.532 3.175 14.895 0.004 -0.002 0.002 0.000
11532 4 13.044 7.381 19.108 0.002 -0.001 -0.002 0.000
2179 4 10.846 12.564 2.951 0.002 -0.003 -0.007 -0.000
1773 4 0.857 13.693 -1.615 -0.001 0.008 -0.001 0.000
177 4 6.822 4.722 -3.488 0.010 0.017 0.007 -0.000
2414 4 9.598 -2.345 19.016 0.005 0.005 0.005 0.000
7219 4 -3.693 8.290 12.487 -0.003 -0.018 -0.017 0.000
1369 4 11.946 5.938 20.251 -0.001 -0.008 -0.004 0.000
2072 4 14.133 5.529 14.753 -0.000 -0.016 -0.008 0.000
5238 4 14.048 -1.134 12.201 -0.001 0.001 -0.000 -0.000
22594 4 9.139 5.659 -4.165 0.014 -0.007 0.002 -0.000
27909 4 13.565 -0.217 -1.471 0.007 0.005 -0.002 -0.000
18252 4 13.517 10.480 -3.790 -0.003 0.005 0.003 -0.000
1297 4 13.278 6.249 4.982 0.007 0.014 0.004 -0.000
945 4 11.463 8.640 1.085 -0.005 0.000 -0.000 -0.000
3017 4 3.904 14.402 9.802 0.011 0.006 -0.016 -0.000
247 4 12.648 8.797 -2.379 0.004 -0.000 -0.010 -0.000
3085 4 7.254 0.660 12.416 -0.003 -0.005 -0.005 -0.000
2802 4 10.096 6.682 18.270 -0.001 -0.008 -0.001 -0.000
8784 4 5.789 13.494 5.669 0.008 0.009 0.003 -0.000
2435 4 14.669 7.907 14.211 -0.001 -0.014 -0.002 -0.000
5393 4 8.902 3.347 -2.764 0.002 0.004 0.006 0.000
6520 4 5.402 5.808 20.114 0.010 -0.008 -0.014 -0.000
7474 4 -0.276 13.194 6.625 -0.003 0.003 -0.012 -0.000
1704 4 6.404 -3.144 -0.079 -0.007 0.004 -0.001 -0.000
7239 4 7.635 9.870 19.227 -0.001 0.001 0.005 -0.000
4091 4 -2.256 2.912 16.553 -0.000 0.004 -0.004 -0.000
1380 4 -3.435 -0.524 -0.301 -0.003 -0.009 0.005 0.000
6552 4 1.693 13.633 5.508 0.007 -0.007 0.003 0.000
16059 4 -3.360 11.778 19.810 0.001 0.007 0.007 -0.000
4993 4 -3.933 13.444 4.208 -0.001 -0.021 0.002 -0.000
10190 4 0.501 -2.765 -0.669 -0.000 0.011 0.001 0.000
1614 4 4.260 -2.814 14.139 0.001 0.000 -0.005 0.000
7423 4 -2.033 3.884 21.162 -0.001 -0.009 -0.005 -0.000
930 4 -4.044 11.354 8.544 0.009 -0.003 -0.008 -0.000
11088 4 -3.693 -2.867 15.118 -0.016 -0.001 0.010 0.000
2163 4 12.473 13.727 14.357 0.006 -0.003 -0.004 0.000
1281 4 7.827 -3.535 6.068 0.004 0.007 -0.011 -0.000
14188 4 -1.800 6.823 13.159 0.011 -0.001 0.003 -0.000
1293 4 0.444 11.999 9.119 -0.001 0.004 -0.003 -0.000
19697 4 8.496 5.856 -1.924 -0.005 0.001 -0.009 -0.000
810 4 7.559 -3.923 14.529 0.005 0.001 0.007 0.000
31872 4 -3.129 7.317 18.998 0.002 -0.001 -0.000 -0.000
1610 4 6.731 -1.849 8.296 0.014 0.002 0.001 -0.000
4956 4 -3.366 5.689 5.785 0.014 -0.007 -0.005 0.000
2488 4 2.709 -4.185 7.449 0.005 0.006 -0.004 -0.000
127 4 12.388 13.420 4.829 0.003 0.004 -0.008 -0.000
3283 4 -1.626 5.687 19.117 -0.006 0.005 0.010 -0.000
251 4 9.340 8.450 -3.475 -0.012 0.007 0.012 -0.000
14714 4 1.744 -1.575 3.745 0.003 0.007 0.006 -0.000
5080 4 5.619 14.357 -4.628 0.007 0.008 0.007 0.000
150 4 13.563 3.595 1.258 0.005 0.008 0.005 -0.000
9535 4 -1.634 11.230 -1.513 0.004 0.005 0.007 0.000
5758 4 1.686 14.268 8.161 0.003 0.008 -0.016 0.000
18446 4 9.342 -1.254 -3.996 -0.001 -0.009 -0.000 -0.000
16024 4 14.391 1.962 20.680 -0.006 0.008 0.000 -0.000
18622 4 8.177 10.853 -2.514 0.001 -0.006 -0.003 -0.000
5839 4 0.937 13.009 18.202 -0.004 0.009 -0.002 0.000
3375 4 5.437 -2.952 17.886 -0.007 0.003 0.004 0.000
294 4 11.283 15.065 3.640 -0.001 0.012 -0.007 0.000
18822 4 12.997 13.111 -3.468 -0.004 0.011 0.000 -0.000
19810 4 -3.561 11.572 -3.157 0.001 0.006 -0.013 -0.000
2560 4 12.990 13.951 17.044 -0.004 -0.009 -0.002 -0.000
6431 4 -3.773 -2.718 1.736 -0.003 0.003 -0.005 0.000
7742 4 1.378 14.941 19.124 0.002 0.003 0.005 0.000
608 4 3.923 3.959 -5.027 0.008 -0.000 -0.003 0.000
6239 4 13.028 11.193 13.993 -0.006 -0.008 -0.004 -0.000
10322 4 2.859 -1.783 16.783 0.003 -0.005 0.002 0.000
2928 4 12.829 5.268 17.332 -0.003 0.000 0.003 0.000
19483 4 6.976 7.876 -4.553 0.002 -0.004 -0.009 0.000
1337 4 13.420 10.935 5.483 -0.000 -0.002 -0.001 0.000
13513 4 1.304 -3.001 9.397 0.007 0.014 -0.005 0.000
642 4 3.086 10.072 20.817 -0.008 -0.005 -0.005 0.000
1386 4 -1.544 11.681 4.015 -0.004 -0.000 -0.000 -0.000
2582 4 12.682 11.185 11.353 0.000 -0.008 -0.006 -0.000
4951 4 -1.414 13.034 10.654 0.001 -0.015 0.002 0.000
19613 4 10.987 4.809 -3.781 0.002 0.015 0.011 0.000
23838 4 -4.425 10.061 -4.967 -0.011 -0.005 -0.001 0.000
1129 4 -4.726 14.176 0.961 -0.002 -0.000 -0.002 -0.000
10332 4 14.458 3.484 -1.111 -0.008 0.000 0.006 -0.000
497 4 14.432 10.715 9.963 0.002 0.002 -0.008 0.000
4872 4 -3.610 1.176 6.584 -0.001 -0.003 0.013 -0.000
2495 4 9.612 10.200 20.153 0.010 0.015 -0.001 0.000
10282 4 3.826 8.368 -3.471 -0.004 -0.007 0.010 -0.000
5715 4 -3.836 10.308 16.011 -0.006 0.012 0.002 0.000
27130 4 1.018 -3.194 1.818 0.005 -0.012 0.001 0.000
6150 4 -3.345 13.843 8.367 -0.005 -0.007 0.006 -0.000
11592 4 7.170 -3.268 20.006 -0.007 0.000 0.009 0.000
5841 4 13.438 13.131 9.683 -0.005 -0.003 -0.013 0.000
1727 4 7.083 12.050 21.377 0.001 0.003 -0.004 -0.000
406 4 3.536 13.275 -1.193 -0.000 -0.002 -0.001 0.000
3217 4 4.346 -4.054 2.454 -0.003 -0.006 0.006 0.000
3468 4 13.841 9.790 18.415 0.001 -0.007 -0.012 -0.000
9970 4 9.190 -3.544 12.897 0.002 -0.002 0.002 -0.000
27123 4 2.186 -3.794 4.814 -0.007 -0.001 0.001 0.000
689 4 0.375 3.952 -5.283 0.004 0.003 -0.012 -0.000
5880 4 -3.022 13.998 12.810 -0.008 0.010 0.000 -0.000
6460 4 0.365 -3.863 17.387 -0.002 0.000 0.003 0.000
19007 4 12.156 11.374 -1.165 0.003 -0.004 0.001 -0.000
1673 4 10.614 -0.707 14.400 0.003 0.010 -0.002 0.000
5036 4 4.329 14.585 6.985 0.001 0.002 0.002 -0.000
3022 4 12.947 13.886 11.961 0.001 0.001 -0.002 0.000
22510 4 -2.074 -1.720 -4.791 -0.005 0.001 -0.002 0.000
13517 4 -4.540 3.308 -0.687 0.001 -0.000 -0.004 -0.000
1819 4 12.128 -3.956 10.895 -0.000 -0.002 -0.003 -0.000
6632 4 -2.532 0.472 20.393 0.005 0.005 -0.008 0.000
926 4 7.902 -3.833 17.374 -0.008 0.007 0.003 -0.000
6216 4 -1.030 14.745 8.403 -0.002 0.004 -0.001 -0.000
1684 4 2.081 -3.522 15.642 -0.002 0.004 -0.007 -0.000
19437 4 13.274 10.238 0.717 -0.013 0.007 0.010 0.000
2405 4 1.044 -3.203 20.952 -0.009 -0.018 -0.001 0.000
25895 4 5.778 -1.639 -4.229 -0.007 0.010 -0.001 -0.000
846 4 13.540 14.301 -0.893 -0.001 -0.000 0.005 -0.000
9165 4 -1.207 14.293 14.612 -0.002 0.005 0.000 0.000
820 4 3.900 -3.634 -4.395 0.002 -0.001 -0.004 -0.000
4038 4 -4.254 4.247 10.221 -0.003 0.001 0.012 -0.000
9567 4 -3.329 -0.286 -2.428 0.002 0.006 0.000 -0.000
19281 4 -4.370 6.169 1.375 0.014 -0.000 0.013 -0.000
1700 4 12.731 10.083 20.873 0.007 -0.001 0.009 0.000
218 4 10.809 10.546 -3.307 -0.007 0.002 0.006 0.000
4511 4 -5.174 8.626 -2.909 -0.004 0.005 -0.008 0.000
7276 4 2.639 -3.856 18.883 0.001 0.004 0.004 0.000
7396 4 -3.702 12.488 17.164 0.006 -0.006 -0.001 0.000
19419 4 1.942 11.213 -4.991 -0.005 0.007 -0.002 -0.000
8364 4 8.387 1.305 -3.955 -0.003 -0.001 0.002 -0.000
2668 4 12.464 4.839 8.688 -0.006 0.004 0.005 -0.000
13200 4 9.270 -2.830 4.209 -0.007 0.009 -0.013 0.000
8757 4 13.400 14.776 7.769 -0.001 0.007 0.004 0.000
19731 4 -3.374 -3.168 -2.824 0.001 0.004 0.003 -0.000
19459 4 -4.379 14.421 -4.427 0.018 -0.010 0.001 -0.000
6159 4 9.199 -3.728 20.962 -0.007 -0.008 -0.002 -0.000
2041 4 1.421 -0.157 21.112 0.011 0.007 -0.007 0.000
19333 4 1.121 13.942 -4.552 -0.001 0.003 0.001 0.000