ITEM: TIMESTEP
2000
ITEM: NUMBER OF ATOMS
32000
ITEM: BOX BOUNDS pp pp pp
-3.014987 73.494987
-3.006169 73.486169
-3.010497 73.490497
ITEM: ATOMS id type x y z vx vy vz q
6 4 0.671 -1.182 -1.045 -0.003 0.003 -0.008 -0.000
10 4 4.958 -0.929 -1.002 0.007 0.004 -0.006 -0.000
14 4 8.252 -1.008 -0.974 -0.003 -0.001 -0.003 -0.000
18 4 12.541 -1.135 -1.056 0.011 0.009 -0.005 -0.000
43 4 -0.986 0.652 -1.267 0.005 0.003 0.007 -0.000
46 4 0.667 2.965 -1.291 0.002 0.003 -0.002 -0.000
47 4 2.573 0.857 -1.227 0.011 0.001 0.001 0.000
50 4 4.487 2.723 -1.064 -0.005 0.010 -0.002 -0.000
51 4 6.529 1.457 -0.843 0.004 -0.005 0.015 0.000
54 4 8.408 2.722 -0.615 -0.000 0.016 0.004 -0.000
55 4 10.567 0.635 -0.997 -0.004 0.001 -0.006 0.000
58 4 12.320 2.777 -1.076 -0.001 0.003 0.007 -0.000
59 4 14.470 0.689 -0.847 0.004 0.008 -0.004 -0.000
83 4 -1.283 5.179 -1.274 -0.002 0.003 -0.003 -0.000
86 4 0.794 6.737 -1.058 -0.009 -0.009 -0.003 -0.000
87 4 2.593 4.761 -0.601 0.004 0.013 -0.002 0.000
90 4 4.551 6.794 -1.358 -0.009 0.004 -0.007 -0.000
91 4 6.465 4.396 -1.143 -0.004 -0.001 -0.001 0.000
94 4 8.233 6.350 -1.320 -0.002 -0.002 0.004 -0.000
95 4 10.193 4.368 -0.886 0.003 0.006 0.008 0.000
98 4 12.422 6.444 -1.169 -0.005 0.010 -0.002 0.000
99 4 14.812 4.959 -1.448 0.001 -0.001 -0.011 -0.000
123 4 -1.165 8.525 -0.924 -0.006 -0.008 -0.011 -0.000
126 4 1.070 10.496 -1.017 0.007 0.013 -0.001 -0.000
127 4 3.013 8.437 -0.994 -0.005 0.003 -0.013 0.000
130 4 4.573 10.278 -1.213 -0.006 -0.019 -0.004 -0.000
131 4 6.391 8.585 -0.876 -0.005 -0.004 -0.009 0.000
134 4 8.600 10.706 -0.780 0.004 -0.000 0.005 -0.000
135 4 10.199 8.645 -1.142 0.007 -0.001 0.005 0.000
138 4 12.112 10.081 -0.800 -0.017 0.001 -0.010 -0.000
139 4 14.259 8.370 -1.067 0.003 0.009 0.007 0.000
163 4 -1.212 12.616 -0.928 -0.010 -0.006 -0.010 0.000
166 4 0.977 14.289 -0.905 0.006 -0.010 -0.001 -0.000
167 4 2.686 12.483 -1.012 -0.003 0.003 -0.001 0.000
170 4 4.678 14.162 -0.986 -0.008 -0.007 0.005 0.000
171 4 7.005 12.730 -0.686 -0.019 0.007 0.005 0.000
174 4 8.525 14.461 -1.287 0.002 -0.001 0.016 -0.000
175 4 10.563 12.747 -1.058 -0.001 -0.000 -0.001 0.000
178 4 12.219 14.451 -1.185 -0.008 0.003 -0.005 -0.000
179 4 13.981 12.581 -1.544 -0.001 0.002 -0.002 -0.000
404 4 -1.075 -1.027 0.531 -0.001 0.005 0.006 0.000
406 4 0.835 -1.055 2.662 0.008 0.002 0.012 -0.000
408 4 2.648 -1.004 0.768 0.002 -0.009 -0.001 0.000
410 4 4.529 -0.962 2.784 -0.003 -0.004 -0.012 0.000
412 4 6.974 -0.508 0.850 -0.000 -0.005 0.002 0.000
414 4 8.402 -0.760 2.913 0.007 0.001 0.001 -0.000
416 4 10.693 -1.032 1.087 -0.007 -0.001 0.001 -0.000
418 4 12.145 -0.719 2.891 0.007 -0.007 0.003 -0.000
420 4 14.692 -1.299 0.804 0.000 0.004 0.001 0.000
443 4 -1.307 1.258 2.592 0.007 -0.001 -0.013 0.000
444 4 -1.158 2.666 0.613 -0.004 0.005 -0.002 0.000
445 4 0.814 1.238 0.357 0.001 -0.005 0.006 0.000
446 4 0.782 2.776 2.881 0.007 0.004 -0.002 -0.000
447 4 2.603 0.786 2.806 0.001 -0.003 -0.012 0.000
448 4 2.564 2.995 1.117 -0.011 -0.004 -0.005 -0.000
449 4 4.410 1.193 0.615 0.017 0.002 0.002 -0.000
450 4 4.600 2.570 2.983 -0.008 -0.006 -0.004 0.000
451 4 6.482 1.050 2.909 0.001 0.012 0.012 -0.000
452 4 6.338 2.862 0.754 0.002 0.003 0.001 0.000
453 4 8.788 1.061 1.048 0.005 -0.008 0.010 0.000
454 4 8.744 2.826 2.974 -0.004 0.009 -0.001 -0.000
455 4 10.327 1.215 3.143 -0.003 -0.001 -0.007 0.000
456 4 10.706 2.872 1.075 0.013 -0.001 0.001 -0.000
457 4 12.603 0.672 0.957 -0.001 0.002 0.015 0.000
458 4 12.320 2.761 3.124 -0.002 0.008 -0.006 0.000
459 4 14.224 0.685 2.533 -0.000 -0.002 -0.003 -0.000
460 4 14.177 2.739 0.477 0.002 -0.002 0.000 0.000
483 4 -1.205 4.573 2.684 0.008 -0.004 0.002 0.000
484 4 -0.930 6.781 1.158 0.005 -0.006 0.012 0.000
485 4 0.521 4.696 0.519 -0.001 -0.013 -0.006 -0.000
486 4 0.942 6.368 2.874 -0.009 -0.002 -0.008 -0.000
487 4 2.733 4.655 3.006 0.001 -0.002 0.004 -0.000
488 4 2.539 6.249 1.048 0.002 -0.001 0.001 0.000
489 4 5.060 4.949 0.767 -0.006 0.008 -0.004 -0.000
490 4 4.306 6.504 2.670 0.008 -0.001 0.006 0.000
491 4 6.733 4.920 2.978 0.000 0.000 -0.006 -0.000
492 4 6.500 6.762 0.876 0.002 -0.004 0.010 0.000
493 4 8.683 4.772 0.903 -0.011 0.005 0.002 0.000
494 4 8.767 6.454 2.437 -0.002 0.002 0.008 0.000
495 4 10.439 4.649 2.821 -0.004 0.008 -0.007 0.000
496 4 10.343 6.649 0.420 -0.000 0.001 0.007 -0.000
497 4 12.775 4.995 0.675 0.002 -0.004 -0.000 -0.000
498 4 12.140 6.621 2.653 -0.004 0.004 -0.001 0.000
499 4 14.550 4.534 2.771 0.008 0.006 0.001 0.000
500 4 14.532 6.393 0.975 0.004 -0.002 0.006 0.000
523 4 -0.891 8.655 2.822 -0.003 -0.007 0.003 0.000
524 4 -0.763 10.515 0.524 0.004 -0.008 -0.000 0.000
525 4 1.157 8.643 0.731 0.001 0.012 -0.003 -0.000
526 4 0.792 10.532 2.761 -0.008 0.002 0.002 -0.000
527 4 2.542 8.435 2.723 0.004 0.004 -0.001 0.000
528 4 3.223 10.316 0.455 -0.013 0.001 0.001 0.000
529 4 4.554 8.082 0.850 0.002 -0.004 -0.005 0.000
530 4 4.506 10.307 2.665 0.002 -0.014 -0.013 0.000
531 4 6.702 8.290 2.294 -0.005 -0.016 0.012 0.000
532 4 6.412 10.404 0.931 -0.005 -0.011 0.001 0.000
533 4 8.451 8.518 0.641 -0.003 0.008 0.003 0.000
534 4 8.334 10.205 2.638 0.008 -0.004 -0.006 0.000
535 4 10.319 8.205 2.439 0.005 -0.009 -0.009 -0.000
536 4 10.505 10.183 0.940 -0.003 -0.005 0.000 0.000
537 4 12.338 8.204 0.750 0.003 -0.005 0.006 -0.000
538 4 12.411 10.474 2.301 -0.004 -0.001 0.009 0.000
539 4 14.125 8.520 2.734 0.006 0.011 0.006 -0.000
540 4 14.214 10.506 0.573 0.003 0.000 -0.004 0.000
563 4 -0.817 12.639 2.860 0.000 -0.002 0.007 0.000
564 4 -0.536 14.076 1.068 -0.000 -0.003 -0.005 -0.000
565 4 0.984 12.271 0.807 0.007 0.010 -0.017 -0.000
566 4 0.926 14.339 2.762 0.002 0.003 -0.008 0.000
567 4 3.033 12.269 2.410 0.016 -0.011 0.001 0.000
568 4 2.709 14.196 0.909 -0.006 -0.003 0.003 -0.000
569 4 4.806 12.070 0.790 -0.000 0.009 -0.002 -0.000
570 4 4.769 14.335 2.362 -0.011 -0.002 -0.001 0.000
571 4 6.129 12.004 2.849 0.008 -0.005 0.004 0.000
572 4 6.169 14.056 0.840 0.001 0.006 -0.001 -0.000
573 4 8.242 12.214 1.256 -0.002 0.006 0.003 -0.000
574 4 7.967 14.085 2.840 0.005 -0.003 -0.000 -0.000
575 4 10.281 12.180 2.703 -0.002 -0.004 -0.002 0.000
576 4 10.146 14.506 0.858 -0.005 0.002 -0.004 -0.000
577 4 12.008 12.254 0.660 0.001 -0.010 0.001 0.000
578 4 12.100 14.279 2.590 0.005 -0.011 0.002 0.000
579 4 14.538 12.451 2.456 -0.004 -0.007 -0.009 0.000
580 4 14.076 13.851 0.669 0.005 -0.011 0.010 0.000
804 4 -1.300 -0.858 4.512 -0.003 0.002 0.009 0.000
806 4 0.740 -0.933 6.744 0.004 0.001 -0.007 -0.000
808 4 2.546 -0.755 4.799 -0.001 0.001 0.005 0.000
810 4 4.435 -1.224 6.298 0.008 0.007 -0.005 0.000
812 4 6.261 -1.193 4.754 0.002 -0.002 -0.000 0.000
814 4 7.750 -0.946 6.728 0.002 -0.004 -0.001 -0.000
816 4 9.979 -0.938 4.668 0.006 -0.007 0.006 0.000
818 4 12.276 -0.978 6.035 -0.002 -0.014 -0.005 0.000
820 4 14.319 -1.134 4.547 -0.002 0.018 0.006 -0.000
843 4 -1.071 0.866 6.451 -0.010 -0.005 -0.005 -0.000
844 4 -1.036 2.742 4.797 -0.001 -0.001 0.004 -0.000
845 4 0.819 1.031 4.416 -0.006 0.011 0.006 0.000
846 4 0.814 3.240 6.842 -0.003 -0.006 -0.000 -0.000
847 4 2.470 0.855 6.472 0.001 -0.010 0.002 0.000
848 4 2.505 2.647 4.652 -0.001 0.002 0.002 -0.000
849 4 4.903 1.409 4.870 0.000 0.003 0.008 -0.000
850 4 4.203 3.019 6.628 0.008 0.006 -0.002 0.000
851 4 6.610 1.259 6.973 0.004 -0.005 0.007 0.000
852 4 6.829 2.716 4.501 0.003 0.003 -0.001 0.000
853 4 8.183 0.684 4.984 -0.003 -0.005 0.006 0.000
854 4 8.436 2.949 6.836 -0.002 -0.007 -0.014 0.000
855 4 10.041 1.033 6.719 0.004 -0.001 -0.001 0.000
856 4 10.151 3.107 5.104 0.005 -0.005 -0.004 0.000
857 4 11.685 1.161 5.049 -0.002 0.002 0.010 -0.000
858 4 11.999 3.403 6.477 0.007 -0.009 -0.005 0.000
859 4 14.097 1.076 6.044 0.007 -0.013 0.007 -0.000
860 4 13.984 3.264 4.781 -0.003 0.002 -0.001 0.000
883 4 -1.355 4.660 6.499 -0.007 -0.004 -0.012 -0.000
884 4 -0.670 6.665 4.773 -0.010 0.002 -0.008 0.000
885 4 0.689 4.671 4.726 -0.007 0.003 -0.007 -0.000
886 4 0.294 6.597 6.908 0.011 0.016 -0.012 -0.000
887 4 2.572 4.983 6.632 -0.006 -0.016 0.015 -0.000
888 4 2.990 6.752 4.774 -0.002 0.004 -0.008 -0.000
889 4 4.766 4.712 4.901 -0.000 -0.002 0.001 -0.000
890 4 4.799 6.251 6.672 -0.012 0.004 0.008 0.000
891 4 6.467 4.746 6.806 -0.008 -0.001 -0.008 -0.000
892 4 6.310 6.957 4.499 0.001 0.007 -0.003 0.000
893 4 8.323 4.999 4.627 -0.000 0.002 -0.004 0.000
894 4 7.928 6.792 6.186 -0.000 0.007 -0.002 -0.000
895 4 9.943 5.242 6.504 -0.006 0.005 0.010 -0.000
896 4 10.528 6.848 4.604 0.007 -0.009 -0.004 -0.000
897 4 12.137 4.866 4.438 0.005 -0.001 0.012 -0.000
898 4 12.373 6.466 6.070 0.012 0.004 0.006 0.000
899 4 14.318 4.939 6.674 -0.001 0.000 0.005 -0.000
900 4 14.386 6.071 4.182 0.002 0.007 0.000 0.000
923 4 -1.204 8.527 6.806 0.002 0.003 0.014 -0.000
924 4 -1.155 10.342 4.566 -0.001 0.014 -0.006 -0.000
925 4 0.953 8.398 4.209 0.008 0.016 -0.001 -0.000
926 4 1.130 10.318 6.450 0.004 -0.004 0.005 0.000
927 4 2.995 8.442 6.692 0.004 -0.012 -0.006 0.000
928 4 2.481 10.574 4.537 0.002 -0.009 -0.006 0.000
929 4 4.426 8.587 4.475 0.008 0.003 -0.006 0.000
930 4 4.750 10.385 6.232 0.006 0.002 0.007 0.000
931 4 6.213 8.592 6.656 0.005 0.004 -0.014 -0.000
932 4 6.535 10.121 4.571 -0.008 -0.010 0.007 0.000
933 4 8.431 8.539 4.428 0.006 0.010 0.002 0.000
934 4 8.072 10.642 6.239 -0.009 0.007 0.004 0.000
935 4 10.413 8.573 6.362 0.001 -0.000 -0.004 0.000
936 4 10.315 10.180 4.368 -0.005 -0.013 -0.005 -0.000
937 4 12.812 8.435 4.348 0.009 -0.004 -0.001 -0.000
938 4 12.344 10.314 6.114 0.006 -0.007 -0.006 -0.000
939 4 13.920 8.215 6.274 -0.006 -0.004 0.005 -0.000
940 4 14.312 10.571 4.882 0.006 -0.002 0.011 0.000
963 4 -0.682 12.434 6.734 -0.004 -0.001 0.001 -0.000
964 4 -1.290 14.755 4.811 0.007 0.011 -0.004 -0.000
965 4 0.798 12.901 4.916 -0.003 -0.019 -0.007 0.000
966 4 1.051 14.258 6.727 0.003 -0.002 0.002 -0.000
967 4 2.523 11.963 6.423 0.005 0.002 0.003 -0.000
968 4 2.660 14.344 4.631 -0.007 0.009 -0.012 -0.000
969 4 4.394 12.339 4.511 0.006 0.007 0.002 -0.000
970 4 4.206 13.834 6.800 0.006 0.003 0.010 0.000
971 4 6.335 12.255 6.535 -0.004 -0.002 -0.003 0.000
972 4 6.304 14.313 4.634 -0.004 -0.001 -0.006 -0.000
973 4 8.534 11.934 4.324 0.014 -0.001 -0.001 -0.000
974 4 8.182 13.554 6.340 0.003 -0.011 -0.006 -0.000
975 4 10.598 11.855 6.337 0.013 -0.002 0.008 0.000
976 4 10.023 14.281 4.379 0.011 -0.009 0.007 0.000
977 4 12.173 12.222 4.188 0.007 0.007 0.008 0.000
978 4 11.821 14.241 6.218 -0.008 -0.005 0.004 0.000
979 4 14.113 12.509 6.283 0.007 -0.001 0.004 -0.000
980 4 14.030 14.334 4.259 0.012 -0.002 0.003 0.000
1204 4 -1.378 -0.756 8.166 -0.002 -0.002 0.011 0.000
1206 4 0.122 -0.766 10.056 0.010 -0.000 -0.002 -0.000
1208 4 2.707 -1.173 8.657 0.003 0.005 -0.011 -0.000
1210 4 4.345 -1.196 10.687 0.006 -0.003 -0.002 -0.000
1212 4 6.269 -0.950 8.460 0.001 -0.009 0.001 0.000
1214 4 8.307 -0.997 9.272 -0.005 -0.010 0.002 0.000
1216 4 10.071 -0.800 7.893 0.009 -0.001 0.005 0.000
1218 4 12.080 -0.938 10.049 -0.004 -0.007 -0.001 -0.000
1220 4 14.307 -1.121 8.182 0.002 -0.003 -0.013 0.000
1243 4 -1.401 0.890 10.275 0.001 0.009 -0.006 0.000
1244 4 -1.356 2.734 8.318 0.001 -0.001 0.011 -0.000
1245 4 0.774 1.458 8.817 -0.001 -0.001 0.010 -0.000
1246 4 0.901 3.159 10.546 -0.005 0.004 0.013 0.000
1247 4 2.739 0.719 10.633 -0.007 -0.005 0.011 -0.000
1248 4 2.551 3.130 8.808 -0.000 -0.014 0.003 -0.000
1249 4 4.332 1.387 8.467 -0.000 0.002 -0.000 -0.000
1250 4 4.341 3.019 10.456 0.003 0.000 0.011 -0.000
1251 4 6.097 1.035 10.402 0.001 0.000 -0.001 0.000
1252 4 6.591 2.968 8.970 0.006 0.012 -0.005 0.000
1253 4 8.404 1.476 9.009 -0.005 0.015 0.005 -0.000
1254 4 8.987 3.498 10.358 0.002 0.003 -0.013 -0.000
1255 4 10.362 1.169 10.156 0.000 0.002 -0.004 0.000
1256 4 10.548 2.726 8.174 0.000 -0.006 0.011 -0.000
1257 4 12.129 0.388 8.213 0.002 -0.008 -0.005 -0.000
1258 4 12.342 2.693 9.855 -0.007 -0.003 0.003 -0.000
1259 4 13.921 0.996 10.261 0.007 -0.004 -0.005 0.000
1260 4 13.851 2.773 8.070 0.002 0.001 -0.002 0.000
1283 4 -1.254 4.693 9.833 0.002 -0.003 0.002 -0.000
1284 4 -1.533 6.757 8.513 0.002 0.016 0.001 0.000
1285 4 0.573 5.071 8.689 -0.003 0.013 -0.003 0.000
1286 4 0.518 6.769 10.506 0.004 0.002 0.009 0.000
1287 4 2.561 4.987 10.482 -0.002 0.004 0.003 -0.000
1288 4 2.612 6.739 8.298 -0.006 0.002 -0.004 -0.000
1289 4 4.457 5.188 8.730 -0.005 -0.004 -0.002 0.000
1290 4 4.394 6.844 10.568 -0.002 0.003 0.003 -0.000
1291 4 6.251 4.987 10.198 -0.011 0.002 -0.005 -0.000
1292 4 6.843 6.868 8.553 -0.011 -0.005 -0.008 0.000
1293 4 8.495 4.959 8.444 0.001 -0.008 0.005 -0.000
1294 4 8.922 6.536 10.561 0.011 -0.004 0.004 -0.000
1295 4 10.811 5.188 10.457 -0.002 0.001 0.008 0.000
1296 4 9.920 6.774 8.346 0.003 0.011 0.003 0.000
1297 4 12.247 5.427 8.527 0.001 0.003 0.001 -0.000
1298 4 12.800 6.696 10.953 0.004 0.004 -0.007 0.000
1299 4 14.148 5.006 10.443 0.000 -0.009 0.004 -0.000
1300 4 14.299 6.856 8.824 -0.003 -0.010 -0.006 0.000
1323 4 -1.306 8.673 10.389 -0.004 0.008 0.012 -0.000
1324 4 -1.028 10.288 8.483 0.004 -0.001 -0.007 -0.000
1325 4 0.474 8.494 8.740 -0.002 0.001 0.003 -0.000
1326 4 1.363 10.940 10.693 0.007 0.002 -0.005 0.000
1327 4 2.440 8.161 10.708 0.001 0.002 -0.003 0.000
1328 4 2.719 9.994 8.796 -0.001 -0.006 -0.014 0.000
1329 4 4.805 8.401 8.604 -0.011 0.007 -0.004 -0.000
1330 4 4.618 10.029 10.560 0.003 0.007 0.002 0.000
1331 4 6.454 8.110 10.435 0.007 0.004 -0.011 -0.000
1332 4 6.308 10.165 8.307 -0.002 0.006 -0.003 0.000
1333 4 8.502 8.781 8.040 -0.003 0.001 0.003 -0.000
1334 4 8.476 9.818 9.988 -0.006 -0.005 -0.002 0.000
1335 4 10.683 8.277 10.488 0.005 0.001 0.009 0.000
1336 4 10.674 10.337 8.424 -0.005 0.000 -0.004 0.000
1337 4 11.858 8.006 8.250 0.009 0.005 -0.001 -0.000
1338 4 12.143 10.298 10.621 -0.003 0.004 0.009 0.000
1339 4 13.986 9.016 10.278 -0.014 -0.003 0.001 0.000
1340 4 13.987 10.224 8.086 0.013 -0.002 0.000 0.000
1363 4 -1.058 12.171 10.653 -0.001 -0.006 0.005 -0.000
1364 4 -1.232 14.231 8.371 -0.003 0.008 -0.002 -0.000
1365 4 1.057 12.154 8.432 -0.009 0.006 0.007 0.000
1366 4 0.489 14.179 9.904 0.009 -0.009 -0.013 0.000
1367 4 2.941 12.538 10.680 -0.011 -0.005 -0.002 0.000
1368 4 2.640 14.397 8.709 0.001 0.005 -0.007 -0.000
1369 4 4.178 11.858 8.640 0.000 0.002 0.006 0.000
1370 4 4.629 14.101 10.430 -0.007 0.004 -0.006 0.000
1371 4 6.614 12.056 9.870 -0.001 0.006 0.006 -0.000
1372 4 6.146 14.171 8.408 0.005 0.004 0.005 0.000
1373 4 8.538 11.896 8.441 -0.000 0.001 0.002 0.000
1374 4 7.885 13.777 10.196 -0.007 -0.013 -0.006 0.000
1375 4 9.676 11.753 10.709 -0.009 -0.006 0.006 -0.000
1376 4 10.154 13.908 8.245 -0.001 -0.002 -0.003 -0.000
1377 4 11.953 12.396 8.055 0.001 0.009 -0.007 -0.000
1378 4 11.514 14.159 10.057 0.006 -0.001 0.004 0.000
1379 4 14.041 12.158 9.907 -0.002 -0.001 -0.003 -0.000
1380 4 13.716 14.063 8.241 0.008 0.008 -0.003 -0.000
1604 4 -1.392 -1.133 12.098 -0.002 0.014 -0.016 0.000
1606 4 0.635 -1.361 14.478 -0.007 0.004 0.013 -0.000
1608 4 2.647 -1.051 12.437 -0.011 0.001 0.004 -0.000
1610 4 4.579 -1.334 14.114 -0.001 0.002 -0.004 -0.000
1612 4 6.537 -1.218 12.067 0.007 0.002 0.011 -0.000
1614 4 8.405 -1.080 13.976 -0.003 -0.011 -0.004 0.000
1616 4 10.005 -1.804 11.692 0.004 0.011 0.004 -0.000
1618 4 11.368 -1.146 13.601 -0.013 0.002 -0.008 0.000
1620 4 13.496 -1.277 11.845 0.008 0.015 0.001 0.000
1643 4 -0.940 1.016 14.071 -0.007 0.007 0.004 0.000
1644 4 -1.091 2.722 12.163 -0.001 0.001 -0.001 -0.000
1645 4 0.352 0.540 12.333 -0.003 -0.004 -0.002 -0.000
1646 4 0.540 3.175 14.279 0.015 0.001 0.003 0.000
1647 4 2.311 0.748 14.284 0.002 0.003 0.005 -0.000
1648 4 2.607 2.825 12.463 -0.003 -0.001 -0.005 0.000
1649 4 4.585 0.998 12.788 -0.003 0.008 -0.007 0.000
1650 4 4.621 2.735 14.329 -0.009 -0.007 0.005 -0.000
1651 4 6.686 0.882 14.203 0.004 0.004 0.002 -0.000
1652 4 6.620 2.865 11.753 -0.003 -0.010 -0.002 0.000
1653 4 8.450 1.268 11.830 -0.011 0.011 0.007 -0.000
1654 4 8.492 2.648 14.317 -0.002 0.008 -0.009 -0.000
1655 4 10.138 0.808 13.849 -0.006 0.001 -0.012 0.000
1656 4 10.661 2.738 11.945 -0.005 -0.001 -0.001 -0.000
1657 4 12.189 0.979 12.349 0.002 0.003 -0.010 -0.000
1658 4 12.452 2.696 13.979 -0.001 0.024 0.006 0.000
1659 4 14.307 0.766 13.577 -0.000 0.000 0.002 0.000
1660 4 14.074 2.916 12.141 -0.003 0.000 0.010 -0.000
1683 4 -1.454 4.741 14.728 -0.004 0.017 0.009 -0.000
1684 4 -1.153 6.687 12.122 0.003 0.002 -0.012 0.000
1685 4 0.796 4.734 12.266 0.007 0.001 -0.018 0.000
1686 4 0.790 6.261 14.275 -0.002 0.003 0.006 0.000
1687 4 2.632 4.748 14.391 -0.002 0.011 0.007 -0.000
1688 4 2.776 6.561 12.559 -0.004 -0.001 -0.005 0.000
1689 4 4.530 4.497 12.690 0.002 0.017 0.003 0.000
1690 4 4.775 6.433 14.767 -0.004 0.001 -0.007 0.000
1691 4 6.820 4.362 14.282 -0.007 -0.001 0.009 -0.000
1692 4 6.612 6.077 12.387 0.007 0.008 0.007 0.000
1693 4 9.189 4.344 12.678 0.001 0.006 0.006 0.000
1694 4 8.844 6.510 14.576 -0.000 -0.001 0.015 0.000
1695 4 10.535 4.698 14.661 -0.002 0.008 -0.001 -0.000
1696 4 10.632 6.724 12.815 0.001 -0.002 -0.004 -0.000
1697 4 12.351 4.707 12.624 -0.004 0.006 0.011 0.000
1698 4 12.322 6.493 14.873 0.002 -0.000 -0.003 0.000
1699 4 14.486 4.339 14.471 -0.006 -0.005 -0.006 -0.000
1700 4 14.122 6.563 12.958 0.013 0.002 -0.002 -0.000
1723 4 -0.746 8.703 14.159 -0.002 0.001 -0.002 0.000
1724 4 -1.455 10.542 12.651 -0.007 0.008 0.007 -0.000
1725 4 0.722 8.782 12.521 -0.005 0.005 0.001 -0.000
1726 4 0.745 10.940 13.618 -0.008 -0.001 -0.014 -0.000
1727 4 2.510 8.525 14.336 0.002 -0.012 -0.001 0.000
1728 4 3.063 9.757 12.298 -0.005 -0.004 0.009 -0.000
1729 4 4.856 8.244 12.547 -0.008 -0.004 0.002 -0.000
1730 4 5.096 10.233 13.857 -0.002 0.012 -0.004 0.000
1731 4 7.052 8.450 14.288 0.001 -0.002 -0.000 0.000
1732 4 6.962 10.000 12.276 -0.001 0.005 -0.007 -0.000
1733 4 8.447 7.890 12.244 -0.001 -0.002 -0.001 -0.000
1734 4 8.586 10.438 14.488 -0.000 0.009 -0.007 0.000
1735 4 10.661 8.833 14.429 -0.015 0.008 -0.010 0.000
1736 4 10.443 10.246 12.431 0.006 -0.004 0.005 0.000
1737 4 12.365 8.543 12.629 -0.000 0.004 0.002 0.000
1738 4 12.275 10.647 14.000 -0.000 -0.004 0.002 0.000
1739 4 14.438 8.810 14.713 0.008 0.008 0.009 0.000
1740 4 14.252 10.155 12.500 0.002 0.010 -0.003 -0.000
1763 4 -1.548 12.414 14.035 0.002 0.011 0.001 -0.000
1764 4 -1.282 14.429 11.962 -0.010 0.004 -0.004 -0.000
1765 4 0.670 12.937 12.114 0.024 0.006 -0.001 0.000
1766 4 0.760 14.391 13.990 -0.019 -0.003 0.004 -0.000
1767 4 3.081 11.916 13.931 0.002 -0.004 -0.002 0.000
1768 4 3.094 14.013 12.125 0.015 0.006 -0.011 0.000
1769 4 5.306 11.845 11.945 0.001 -0.006 0.002 0.000
1770 4 4.600 13.966 14.627 0.004 0.005 -0.002 0.000
1771 4 6.473 12.154 14.134 0.001 -0.001 -0.004 -0.000
1772 4 6.591 14.175 12.591 -0.005 0.007 -0.006 -0.000
1773 4 8.097 12.267 12.396 0.007 -0.003 -0.004 0.000
1774 4 8.492 14.005 14.705 0.001 -0.002 0.008 0.000
1775 4 10.194 12.230 14.199 0.006 0.000 0.001 -0.000
1776 4 9.691 14.378 11.775 -0.007 0.005 -0.005 -0.000
1777 4 12.251 12.355 12.213 0.003 0.005 0.001 -0.000
1778 4 11.927 13.944 14.015 -0.002 0.010 -0.002 0.000
1779 4 14.025 12.424 13.952 -0.000 -0.006 -0.013 -0.000
1780 4 13.945 14.290 12.375 0.001 -0.000 -0.006 -0.000
2004 4 -1.134 -1.046 15.838 -0.002 0.006 -0.003 0.000
2006 4 0.854 -1.268 17.671 -0.001 -0.004 -0.005 -0.000
2008 4 2.755 -0.912 16.035 0.008 0.010 -0.006 0.000
2010 4 4.341 -0.703 17.782 -0.009 0.004 -0.002 -0.000
2012 4 6.498 -0.893 16.025 -0.003 -0.003 0.004 0.000
2014 4 8.509 -1.376 18.075 -0.007 -0.006 -0.009 0.000
2016 4 10.109 -1.903 15.967 -0.000 -0.004 0.003 0.000
2018 4 12.051 -0.988 17.815 0.003 -0.006 0.002 0.000
2020 4 14.301 -1.184 15.723 0.007 0.001 0.004 0.000
2043 4 -1.188 0.409 17.945 -0.007 0.005 -0.007 0.000
2044 4 -1.020 2.761 16.275 0.003 0.009 0.006 -0.000
2045 4 0.697 1.035 16.037 0.000 -0.001 -0.003 0.000
2046 4 1.057 2.613 18.001 0.002 0.008 -0.003 -0.000
2047 4 2.351 0.698 18.147 -0.001 -0.003 -0.004 0.000
2048 4 2.625 2.787 16.287 -0.003 -0.005 0.004 0.000
2049 4 4.420 0.877 15.777 -0.012 0.003 -0.006 -0.000
2050 4 4.426 2.488 17.806 0.007 -0.003 0.003 -0.000
2051 4 6.453 0.896 18.052 -0.012 -0.010 0.001 -0.000
2052 4 6.602 2.358 16.164 0.007 0.007 0.007 0.000
2053 4 8.378 0.774 15.947 -0.015 0.003 -0.002 -0.000
2054 4 8.668 2.307 17.815 -0.005 0.003 0.001 0.000
2055 4 10.223 0.368 17.685 0.007 0.011 0.001 -0.000
2056 4 10.406 2.319 15.867 0.002 0.004 0.001 0.000
2057 4 11.961 0.335 15.677 0.010 0.010 -0.013 -0.000
2058 4 12.420 2.110 17.794 0.004 -0.000 -0.008 0.000
2059 4 14.512 0.479 17.770 -0.001 0.007 0.000 -0.000
2060 4 14.272 2.412 15.750 -0.008 0.003 0.011 0.000
2083 4 -1.143 4.631 18.120 -0.002 -0.004 -0.003 -0.000
2084 4 -1.388 6.677 16.423 -0.014 -0.005 0.001 0.000
2085 4 0.631 4.704 16.399 0.001 -0.001 0.013 -0.000
2086 4 0.910 6.689 18.095 0.003 -0.005 -0.001 -0.000
2087 4 2.644 4.696 18.094 -0.005 0.001 0.008 -0.000
2088 4 2.383 6.355 16.076 -0.002 0.002 0.004 0.000
2089 4 4.762 4.352 16.268 -0.002 0.000 0.002 0.000
2090 4 4.383 6.553 17.584 0.009 -0.004 0.005 0.000
2091 4 6.094 4.421 18.180 0.006 -0.005 -0.005 -0.000
2092 4 6.560 6.365 16.301 0.000 0.000 -0.008 0.000
2093 4 8.772 4.739 16.224 0.003 -0.007 -0.000 0.000
2094 4 8.490 6.525 17.994 0.000 0.001 -0.008 0.000
2095 4 10.393 4.595 18.146 0.001 -0.006 0.010 -0.000
2096 4 10.588 6.356 16.350 0.007 0.001 0.011 -0.000
2097 4 12.509 4.292 16.393 -0.007 -0.013 0.006 0.000
2098 4 12.491 6.497 17.927 0.002 0.003 0.010 -0.000
2099 4 14.336 4.559 17.978 -0.007 -0.003 0.007 -0.000
2100 4 14.574 6.647 16.228 0.007 -0.004 0.004 0.000
2123 4 -1.133 8.468 18.136 0.006 -0.008 0.002 0.000
2124 4 -1.207 10.728 15.948 0.001 0.002 0.005 0.000
2125 4 0.788 8.352 16.068 0.001 -0.003 -0.009 -0.000
2126 4 1.001 10.747 18.168 0.004 -0.003 0.008 -0.000
2127 4 2.761 8.542 18.068 0.001 -0.002 0.004 0.000
2128 4 2.535 10.418 15.936 0.005 -0.009 0.002 0.000
2129 4 4.677 8.743 15.753 0.001 0.000 -0.001 0.000
2130 4 4.426 10.605 18.039 0.015 0.004 0.002 -0.000
2131 4 6.390 8.594 17.873 -0.002 0.002 0.010 0.000
2132 4 6.659 10.312 15.961 -0.011 -0.005 -0.001 -0.000
2133 4 8.507 8.496 16.435 0.015 -0.002 -0.015 -0.000
2134 4 8.539 10.138 18.084 0.008 -0.004 -0.014 0.000
2135 4 10.570 8.489 18.215 -0.011 0.005 0.016 0.000
2136 4 10.414 10.628 16.293 0.001 0.004 -0.005 -0.000
2137 4 12.387 8.451 16.255 -0.006 -0.006 -0.004 -0.000
2138 4 12.650 10.471 18.170 0.004 0.006 -0.004 0.000
2139 4 14.758 8.515 18.167 -0.002 -0.002 -0.001 0.000
2140 4 14.524 10.208 16.548 -0.007 0.014 0.004 -0.000
2163 4 -1.187 12.187 18.148 -0.005 0.011 -0.004 -0.000
2164 4 -1.124 13.900 15.579 -0.007 -0.005 -0.000 -0.000
2165 4 0.926 12.220 16.132 -0.011 0.002 -0.007 -0.000
2166 4 0.553 14.491 18.318 -0.001 0.001 -0.002 -0.000
2167 4 2.665 12.411 18.045 -0.005 0.003 -0.001 0.000
2168 4 2.827 14.213 16.219 -0.007 -0.001 -0.006 -0.000
2169 4 4.609 12.184 16.125 -0.005 -0.001 0.005 -0.000
2170 4 4.597 14.404 18.127 -0.008 -0.004 -0.003 -0.000
2171 4 6.409 12.225 18.047 -0.003 0.003 0.001 0.000
2172 4 6.589 14.152 16.412 0.005 -0.007 0.005 -0.000
2173 4 8.099 12.291 16.254 0.004 -0.003 -0.008 -0.000
2174 4 8.268 14.149 18.591 -0.007 -0.000 -0.015 0.000
2175 4 10.147 12.477 18.240 0.002 -0.003 0.005 0.000
2176 4 10.226 14.169 16.154 -0.006 0.009 -0.003 -0.000
2177 4 12.181 12.435 16.019 0.004 -0.004 -0.008 0.000
2178 4 12.309 14.253 17.982 -0.007 -0.010 -0.003 0.000
2179 4 14.223 12.527 18.013 -0.003 -0.002 -0.002 -0.000
2180 4 13.904 14.359 16.264 -0.004 -0.005 -0.004 0.000
2404 4 -1.282 -1.126 20.385 0.006 0.008 -0.005 -0.000
2406 4 0.713 -1.175 22.101 0.005 -0.006 -0.009 -0.000
2408 4 2.470 -0.937 19.818 0.003 0.005 0.004 0.000
2410 4 4.288 -0.897 22.058 0.004 0.006 0.001 0.000
2412 4 6.337 -1.030 20.279 -0.001 0.007 -0.006 -0.000
2414 4 8.660 -1.024 22.007 -0.007 -0.004 -0.002 0.000
2416 4 10.604 -1.532 19.767 0.002 0.001 0.005 -0.000
2420 4 14.462 -0.779 19.939 0.005 0.006 0.001 0.000
2443 4 -0.801 0.686 21.981 0.007 -0.012 -0.001 0.000
2444 4 -1.136 3.055 20.236 -0.007 0.005 -0.009 -0.000
2445 4 0.365 0.640 19.468 0.005 0.008 0.003 0.000
2446 4 0.755 2.839 21.582 0.003 0.008 -0.006 0.000
2448 4 2.773 2.666 19.655 -0.007 0.006 -0.001 0.000
2449 4 4.708 0.474 19.857 -0.006 -0.005 -0.010 0.000
2450 4 4.356 2.551 21.715 -0.006 0.012 -0.002 0.000
2451 4 6.720 0.855 21.773 0.012 0.005 0.005 0.000
2452 4 6.662 2.652 19.859 0.003 -0.005 -0.004 0.000
2453 4 8.490 0.459 19.901 -0.003 0.003 -0.004 -0.000
2454 4 8.642 2.736 21.868 0.008 -0.001 0.001 -0.000
2455 4 10.453 0.627 21.994 0.004 0.000 -0.011 -0.000
2456 4 10.230 2.657 19.788 -0.002 -0.013 0.001 0.000
2457 4 12.169 0.873 19.878 0.002 -0.008 -0.014 0.000
2458 4 12.052 2.571 21.572 -0.002 0.012 0.002 0.000
2459 4 14.106 0.893 22.305 0.001 -0.007 -0.004 -0.000
2460 4 14.192 2.243 19.850 -0.007 -0.007 -0.004 -0.000
2483 4 -0.971 4.940 21.888 0.003 0.007 -0.005 -0.000
2484 4 -0.682 6.466 19.894 -0.000 0.007 -0.003 -0.000
2485 4 0.636 4.578 19.901 0.008 -0.001 -0.003 0.000
2486 4 1.397 6.697 21.889 0.012 -0.001 0.002 0.000
2488 4 2.802 6.488 19.955 -0.014 -0.001 -0.003 -0.000
2489 4 4.531 4.593 19.977 0.004 -0.004 0.002 0.000
2491 4 6.458 4.427 21.805 -0.003 0.005 -0.012 -0.000
2492 4 6.299 6.524 19.740 0.009 0.003 0.010 0.000
2493 4 8.447 4.561 19.570 0.000 -0.006 -0.000 0.000
2496 4 10.607 6.646 20.009 0.003 0.002 -0.003 -0.000
2497 4 12.589 4.273 19.668 0.009 -0.003 0.008 0.000
2498 4 12.658 6.441 21.891 0.000 0.002 -0.000 -0.000
2499 4 14.171 4.271 21.779 -0.008 -0.006 -0.002 -0.000
2500 4 14.547 6.069 19.793 0.002 0.001 0.005 0.000
2523 4 -0.878 8.762 22.009 -0.004 -0.000 0.002 -0.000
2524 4 -0.798 10.622 20.027 0.005 -0.004 0.000 -0.000
2525 4 0.943 8.705 20.111 0.004 0.004 -0.002 0.000
2526 4 0.521 10.800 22.423 -0.000 0.004 0.011 0.000
2528 4 2.768 10.369 20.408 -0.005 0.003 -0.006 0.000
2529 4 4.785 8.332 19.873 -0.002 -0.000 0.003 0.000
2531 4 6.439 8.338 21.689 0.000 0.008 0.003 0.000
2532 4 6.512 10.261 19.748 -0.008 -0.002 0.003 -0.000
2533 4 8.022 7.991 19.680 -0.017 0.002 0.002 -0.000
2534 4 8.693 9.654 21.834 -0.001 -0.003 0.009 -0.000
2536 4 10.456 10.164 20.021 -0.003 -0.001 0.004 -0.000
2537 4 12.465 8.613 19.597 -0.002 -0.007 0.006 -0.000
2538 4 12.438 10.383 21.722 -0.005 0.001 0.002 0.000
2539 4 14.278 8.154 21.360 0.005 0.003 0.011 0.000
2540 4 14.742 10.572 19.906 0.003 -0.004 -0.001 -0.000
2563 4 -1.473 12.829 22.191 -0.001 0.000 -0.004 -0.000
2564 4 -0.861 14.660 20.498 0.002 -0.000 -0.003 -0.000
2565 4 1.002 12.518 19.831 -0.001 0.002 0.005 0.000
2566 4 1.184 14.434 21.868 -0.001 0.001 -0.001 0.000
2567 4 2.257 12.253 21.945 0.001 -0.005 -0.003 -0.000
2568 4 2.652 14.352 19.899 0.005 0.005 -0.001 -0.000
2569 4 4.636 12.174 20.334 -0.004 0.005 -0.008 -0.000
2570 4 4.077 14.337 21.974 -0.002 0.005 -0.000 0.000
2571 4 6.359 12.079 21.970 0.005 0.003 -0.005 0.000
2572 4 6.305 14.193 20.794 -0.006 0.004 0.002 -0.000
2573 4 7.925 12.301 19.970 -0.004 0.005 0.008 -0.000
2574 4 8.443 14.428 21.859 0.008 -0.001 -0.001 0.000
2575 4 10.282 12.341 21.210 -0.002 0.001 0.015 0.000
2576 4 10.504 14.265 19.879 0.004 -0.005 0.000 -0.000
2577 4 12.519 12.385 19.875 0.001 0.005 0.007 0.000
2579 4 14.282 12.356 21.928 0.001 0.012 -0.002 -0.000
2580 4 14.218 14.162 19.916 0.001 0.004 -0.004 -0.000
2418 4 12.240 -1.391 21.699 -0.006 0.002 -0.009 -0.000
2490 4 4.905 6.618 21.782 0.003 0.001 0.009 -0.000
2535 4 10.532 8.416 21.617 -0.004 -0.002 -0.007 0.000
2494 4 8.609 6.707 21.744 0.002 -0.005 0.008 0.000
2527 4 3.181 8.389 22.075 0.005 -0.004 0.004 -0.000
2447 4 2.446 1.116 22.257 0.003 -0.004 0.003 -0.000
2495 4 10.159 4.668 21.390 0.000 -0.008 0.008 -0.000
1407 4 2.507 16.026 10.345 0.005 0.006 0.001 -0.000
417 4 12.487 -2.926 0.841 0.004 -0.010 0.003 0.000
415 4 10.225 -2.912 2.639 -0.004 -0.002 -0.006 0.000
817 4 12.218 -2.686 4.505 0.002 -0.003 0.009 0.000
2542 4 15.681 10.102 22.087 0.004 -0.003 -0.003 -0.000
2082 4 -2.809 6.571 18.276 -0.003 -0.008 -0.003 -0.000
1661 4 15.962 1.036 11.697 0.013 0.005 0.007 -0.000
1622 4 15.742 -1.381 13.705 0.001 0.005 -0.008 -0.000
1817 4 11.978 15.940 11.871 -0.003 -0.006 -0.000 0.000
15 4 10.447 -2.938 -0.488 0.009 -0.004 0.003 0.000
88 4 2.807 6.363 -2.939 -0.003 0.010 0.004 0.000
1815 4 9.873 15.779 13.985 0.003 -0.004 -0.008 -0.000
1262 4 15.995 3.097 10.041 -0.005 -0.007 0.000 0.000
2122 4 -2.742 10.500 18.171 -0.001 0.007 0.008 0.000
1813 4 8.080 16.060 11.890 -0.001 0.002 0.006 0.000
411 4 6.320 -2.944 2.578 -0.006 -0.005 -0.006 -0.000
822 4 16.001 -1.370 6.254 -0.004 -0.019 -0.001 -0.000
402 4 -2.739 -0.904 2.661 -0.001 -0.001 0.006 -0.000
2413 4 8.278 -2.850 20.326 0.000 -0.009 0.001 -0.000
2578 4 12.387 13.727 21.589 -0.006 -0.010 -0.003 0.000
168 4 2.879 14.009 -2.550 -0.005 0.005 -0.003 -0.000
442 4 -2.848 2.837 2.199 -0.011 -0.007 0.000 0.000
2121 4 -2.732 9.020 16.118 -0.003 0.001 -0.002 -0.000
2213 4 7.973 16.043 16.503 -0.006 0.004 -0.006 -0.000
2487 4 2.761 4.567 22.244 -0.004 0.005 0.016 -0.000
140 4 13.732 10.419 -2.775 0.004 -0.009 0.003 0.000
1782 4 15.732 14.887 13.884 0.001 -0.004 0.011 0.000
1261 4 15.646 1.182 8.642 0.005 -0.002 0.006 -0.000
1205 4 0.807 -2.760 8.764 0.006 -0.007 -0.005 0.000
2405 4 0.814 -2.760 19.801 0.006 0.006 0.004 0.000
562 4 -2.794 14.241 2.946 -0.004 -0.001 0.000 0.000
122 4 -2.923 10.538 -0.910 -0.013 -0.010 0.012 0.000
128 4 2.769 10.176 -2.657 -0.001 0.018 0.006 -0.000
136 4 10.195 10.693 -2.888 -0.004 0.000 0.005 0.000
44 4 -1.132 2.655 -2.975 0.007 -0.003 -0.001 0.000
1742 4 16.018 10.420 14.421 -0.002 -0.008 -0.013 0.000
1302 4 15.817 7.107 10.735 0.001 -0.011 -0.003 0.000
482 4 -2.755 6.736 2.790 -0.007 -0.005 0.012 0.000
1721 4 -2.612 8.572 12.479 -0.013 0.008 0.008 -0.000
881 4 -2.947 4.966 4.611 -0.001 0.006 -0.002 0.000
2521 4 -2.633 8.323 20.413 0.003 -0.012 0.002 0.000
2482 4 -2.774 6.549 21.832 -0.004 0.001 -0.014 -0.000
619 4 14.173 15.723 2.384 -0.010 -0.003 -0.001 -0.000
1419 4 14.040 15.831 10.464 0.007 -0.003 0.012 -0.000
2403 4 -1.230 -2.960 22.382 0.000 -0.007 0.007 0.000
8 4 2.888 -1.406 -2.770 0.002 -0.000 -0.008 -0.000
2422 4 15.435 -1.571 22.389 0.003 -0.007 -0.001 0.000
481 4 -2.625 4.831 0.777 -0.002 -0.001 -0.004 -0.000
2042 4 -2.642 2.418 18.352 0.009 -0.002 -0.016 0.000