ITEM: TIMESTEP
47000
ITEM: NUMBER OF ATOMS
32000
ITEM: BOX BOUNDS pp pp pp
-5.799021 76.279021
-3.238616 73.718616
-6.339107 76.819107
ITEM: ATOMS id type x y z vx vy vz q
531 4 -0.494 9.463 5.051 -0.006 0.010 0.008 0.000
2528 4 1.989 0.377 17.616 -0.005 0.004 0.012 0.000
1282 4 8.545 8.409 9.213 -0.001 -0.002 -0.007 -0.000
19490 4 -2.616 5.647 13.584 0.007 0.005 0.004 -0.000
19217 4 1.169 5.210 9.861 0.001 -0.010 -0.010 0.000
23469 4 -0.537 7.133 2.723 0.007 -0.001 0.002 0.000
490 4 -3.463 6.444 9.314 0.001 -0.004 0.002 -0.000
19282 4 6.503 12.867 0.819 0.004 -0.006 -0.001 0.000
404 4 -2.389 4.224 9.523 0.002 -0.002 0.008 0.000
3307 4 -1.714 3.228 11.810 0.001 0.003 0.003 0.000
18442 4 7.691 0.861 -4.464 0.005 0.000 -0.011 0.000
2007 4 10.014 8.611 19.691 0.003 0.012 -0.012 0.000
648 4 7.632 11.134 14.089 0.015 -0.002 -0.002 -0.000
10684 4 3.226 1.977 5.664 -0.007 -0.006 -0.001 0.000
202 4 10.301 2.105 3.945 0.002 0.003 0.003 0.000
844 4 12.546 8.428 0.471 -0.003 -0.006 -0.002 0.000
4074 4 11.230 13.167 11.226 0.010 0.008 0.004 0.000
3365 4 4.240 4.871 14.053 0.003 -0.002 0.009 0.000
13152 4 -2.839 8.776 10.862 0.004 -0.000 0.003 -0.000
13597 4 11.652 10.115 5.810 -0.001 -0.002 0.002 0.000
7718 4 13.923 1.922 7.884 0.003 0.002 0.001 0.000
8731 4 13.117 2.309 10.906 -0.000 -0.010 0.005 -0.000
18934 4 10.720 2.854 -3.492 -0.002 -0.008 -0.006 -0.000
6029 4 9.588 3.734 8.325 0.002 -0.004 -0.011 0.000
12360 4 1.942 3.093 -1.631 -0.008 0.003 -0.006 -0.000
18852 4 11.086 5.401 3.397 0.007 -0.006 -0.003 0.000
894 4 3.067 3.424 11.248 -0.001 0.003 0.002 -0.000
2981 4 -5.127 11.634 11.384 -0.003 -0.005 0.011 0.000
614 4 3.183 7.404 6.000 -0.005 -0.004 0.007 0.000
10296 4 4.034 8.433 15.077 -0.009 -0.004 0.003 -0.000
4480 4 1.928 5.643 12.174 -0.007 -0.001 -0.002 -0.000
19782 4 8.965 4.088 2.725 0.003 0.001 -0.000 0.000
23396 4 5.625 4.870 15.876 0.004 -0.007 -0.009 0.000
201 4 7.113 0.366 1.572 -0.000 0.006 0.004 0.000
1777 4 13.752 8.469 4.978 0.010 0.016 0.007 0.000
217 4 3.687 5.823 8.955 -0.003 0.008 0.007 -0.000
27169 4 4.227 4.081 -2.697 -0.014 -0.013 0.000 0.000
173 4 5.785 6.243 6.619 -0.006 0.001 0.012 -0.000
539 4 6.764 8.596 6.692 -0.001 0.002 -0.003 -0.000
3830 4 10.647 6.176 8.735 -0.005 -0.005 0.003 -0.000
2647 4 6.244 3.992 5.084 -0.000 -0.001 -0.003 0.000
1364 4 8.389 9.072 12.235 -0.007 0.007 0.000 0.000
8326 4 5.977 6.588 14.480 0.005 -0.002 -0.003 0.000
27579 4 2.449 2.833 8.470 -0.008 0.002 -0.001 0.000
16513 4 6.233 10.987 8.996 -0.001 -0.004 -0.002 0.000
19376 4 4.516 3.180 -0.372 0.000 -0.002 -0.005 0.000
2422 4 12.606 6.670 15.620 -0.000 -0.011 0.000 -0.000
13116 4 6.870 9.503 16.437 0.001 0.001 -0.001 0.000
9886 4 3.488 11.913 19.404 0.008 -0.012 0.001 0.000
4313 4 2.163 3.851 1.184 0.001 0.003 0.005 -0.000
7019 4 1.510 12.322 17.335 -0.007 0.003 0.001 0.000
1443 4 1.840 9.453 8.383 -0.007 0.012 -0.004 0.000
5068 4 9.062 13.616 17.946 -0.003 0.000 -0.006 -0.000
6154 4 1.844 9.741 11.926 -0.004 -0.006 0.004 -0.000
6673 4 3.513 7.021 13.048 -0.000 -0.001 -0.002 0.000
178 4 4.697 2.941 7.403 0.003 0.012 -0.001 -0.000
1216 4 7.680 2.167 3.244 0.003 0.006 -0.005 -0.000
5267 4 -0.111 5.623 14.755 -0.013 0.008 -0.007 0.000
27566 4 -0.682 10.892 7.551 0.000 0.006 0.003 0.000
18496 4 0.887 8.384 1.438 0.004 -0.007 -0.005 -0.000
15594 4 -3.653 2.049 11.146 0.004 0.004 -0.002 -0.000
19223 4 4.227 5.342 11.223 -0.005 -0.010 -0.007 -0.000
3246 4 4.294 9.630 6.908 0.003 0.004 0.010 -0.000
8682 4 7.017 13.519 6.382 0.015 0.007 -0.004 0.000
7471 4 9.623 6.657 18.166 -0.008 0.006 0.004 -0.000
16043 4 10.546 1.865 9.605 -0.004 -0.016 0.011 0.000
19309 4 1.965 0.654 -3.110 -0.000 0.009 0.001 0.000
1643 4 0.969 1.546 7.193 -0.002 -0.001 0.002 -0.000
19645 4 11.378 2.328 6.197 0.004 0.003 0.005 0.000
487 4 3.630 11.966 -0.305 0.004 -0.007 -0.001 0.000
19699 4 11.822 4.178 -0.348 -0.004 -0.009 -0.002 0.000
18845 4 2.315 7.893 17.031 -0.012 -0.002 -0.004 -0.000
19244 4 5.508 0.720 3.435 -0.008 0.006 0.003 0.000
18861 4 10.875 -0.388 0.787 0.005 -0.002 -0.002 0.000
23478 4 13.395 9.266 15.190 0.004 0.004 0.002 0.000
19656 4 6.178 5.171 -1.216 0.002 -0.002 -0.006 0.000
1276 4 5.024 7.061 0.239 -0.004 0.011 0.002 -0.000
1251 4 2.589 6.075 15.095 -0.008 0.002 0.013 -0.000
2857 4 -0.312 7.728 9.772 0.005 0.006 -0.009 0.000
2516 4 3.734 10.589 13.355 0.014 -0.004 0.007 -0.000
11147 4 6.290 2.364 15.061 0.004 0.007 0.010 -0.000
5387 4 3.098 -1.198 19.629 0.001 0.011 -0.007 0.000
19806 4 12.439 2.053 -4.963 0.017 0.011 0.010 0.000
2118 4 6.723 -0.962 18.303 0.001 -0.000 -0.009 -0.000
2729 4 8.267 8.338 14.454 -0.007 0.008 -0.005 0.000
3085 4 8.088 5.394 4.847 0.001 -0.003 -0.001 -0.000
7474 4 0.665 7.039 5.555 0.000 -0.003 0.001 -0.000
1293 4 -1.834 13.105 0.040 -0.006 -0.003 0.004 0.000
150 4 -2.225 5.889 1.613 0.003 -0.002 0.000 0.000
10322 4 6.051 -0.157 8.556 -0.002 -0.007 -0.002 0.000
13513 4 1.052 1.482 15.190 0.005 -0.004 -0.000 0.000
10282 4 11.540 6.000 1.085 -0.012 -0.003 -0.006 -0.000
2668 4 6.636 10.854 5.979 0.002 0.005 0.001 -0.000
7787 4 -1.260 4.956 4.879 -0.003 -0.001 0.008 0.000
6833 4 7.790 2.695 19.508 0.004 0.003 -0.007 0.000
4073 4 2.140 8.217 -0.631 0.011 0.003 -0.003 0.000
899 4 9.863 1.563 12.266 -0.000 -0.002 -0.002 0.000
18858 4 8.241 8.150 4.611 -0.002 -0.001 -0.000 0.000
4640 4 3.051 12.016 2.531 -0.008 -0.007 -0.000 -0.000
27962 4 9.009 6.678 2.588 -0.009 0.007 0.004 -0.000
815 4 5.482 -1.606 20.912 0.004 0.001 0.006 0.000
2531 4 3.412 6.484 -1.794 -0.003 -0.005 0.001 0.000
13958 4 -1.526 -0.453 0.641 0.008 0.010 -0.001 -0.000
846 4 10.957 5.707 6.228 0.000 0.001 0.001 -0.000
281 4 9.904 -2.297 5.018 -0.005 -0.006 0.002 -0.000
3468 4 3.422 10.788 16.192 0.000 -0.002 0.003 -0.000
12752 4 4.403 2.792 3.918 -0.016 0.004 0.009 -0.000
20276 4 11.995 0.515 12.296 0.017 0.003 -0.009 -0.000
5709 4 6.477 7.067 2.233 0.004 0.009 -0.001 0.000
27522 4 6.076 8.878 13.519 -0.015 0.005 0.005 0.000
2524 4 -4.834 4.578 7.830 -0.000 -0.014 -0.013 0.000
4440 4 -1.891 7.287 6.116 -0.006 -0.006 -0.004 -0.000
5760 4 5.675 7.541 4.650 0.008 -0.010 0.004 -0.000
1614 4 8.603 5.074 10.834 0.008 0.001 -0.003 -0.000
1291 4 5.178 2.460 12.617 -0.015 -0.005 -0.004 -0.000
10758 4 7.676 6.426 16.271 0.005 0.005 0.008 0.000
19801 4 -5.123 6.648 13.179 -0.013 0.007 -0.002 0.000
11568 4 4.341 9.294 18.517 -0.002 0.007 0.002 0.000
14714 4 1.816 3.694 13.881 0.004 0.012 -0.006 -0.000
6274 4 -1.442 10.730 -1.022 -0.003 -0.008 0.005 -0.000
9685 4 2.203 6.138 1.141 -0.001 -0.009 0.007 0.000
421 4 8.698 3.758 16.292 -0.000 0.002 0.005 0.000
9137 4 10.069 4.256 13.550 -0.009 -0.000 -0.005 -0.000
810 4 12.571 1.408 15.768 0.009 0.001 -0.005 -0.000
27123 4 -2.722 -2.580 7.607 -0.001 0.005 0.009 -0.000
41 4 10.247 8.953 7.072 -0.003 -0.002 -0.004 0.000
3271 4 8.294 -0.251 4.903 -0.002 -0.000 0.001 0.000
1240 4 9.815 8.066 0.443 0.002 -0.012 -0.007 -0.000
6877 4 -0.006 11.965 10.426 -0.002 -0.001 -0.001 0.000
847 4 10.718 8.169 4.900 0.008 0.011 -0.015 -0.000
27130 4 7.694 4.468 7.033 -0.014 0.009 0.003 0.000
19737 4 1.109 10.046 2.811 0.000 0.000 0.008 -0.000
5000 4 -0.479 13.608 8.273 0.003 -0.000 -0.002 0.000
5838 4 10.984 8.054 16.937 -0.004 -0.004 -0.001 0.000
17820 4 4.503 11.802 -3.137 -0.015 0.001 -0.003 -0.000
13075 4 4.712 0.335 5.838 -0.004 -0.016 -0.003 -0.000
14716 4 12.479 -1.917 4.844 0.004 -0.010 0.004 0.000
214 4 7.429 2.717 -0.116 0.005 -0.005 -0.007 -0.000
8698 4 10.586 0.685 17.155 -0.002 0.005 -0.007 -0.000
4353 4 7.735 10.434 -0.159 -0.002 -0.008 -0.007 0.000
2909 4 9.940 2.030 15.230 -0.010 0.003 -0.014 0.000
9921 4 4.103 5.566 3.996 0.015 -0.018 -0.009 -0.000
2462 4 3.449 2.324 18.727 0.012 -0.007 0.001 -0.000
10657 4 9.852 10.348 15.125 0.008 0.010 -0.009 -0.000
3134 4 -3.943 0.190 16.439 -0.018 -0.009 0.006 0.000
22878 4 0.748 5.710 -1.972 -0.006 0.000 0.003 -0.000
3217 4 10.672 -0.274 5.259 0.007 0.016 -0.003 -0.000
19887 4 2.884 11.304 9.730 -0.010 0.005 0.008 -0.000
4078 4 4.459 9.992 10.877 0.002 -0.005 -0.004 -0.000
13997 4 -0.843 6.095 8.136 -0.005 0.004 -0.007 0.000
3010 4 8.175 4.134 -1.989 0.010 -0.002 0.006 -0.000
5020 4 4.365 -1.996 10.067 0.011 -0.005 0.008 -0.000
1651 4 1.297 0.121 9.001 0.001 0.006 -0.002 0.000
5357 4 -3.153 4.369 -0.565 0.005 -0.002 0.003 -0.000
2412 4 0.360 9.961 16.921 0.012 -0.001 0.001 0.000
55 4 9.835 10.844 11.581 0.012 0.003 0.008 -0.000
9924 4 -2.399 10.936 5.179 -0.008 0.004 -0.006 -0.000
2108 4 12.647 8.477 20.045 -0.002 -0.005 -0.009 0.000
164 4 3.183 4.909 6.387 -0.000 -0.002 -0.014 0.000
1249 4 8.805 1.531 -2.440 0.007 -0.002 0.005 -0.000
1331 4 6.054 1.231 18.583 0.006 -0.005 -0.007 0.000
163 4 -0.295 3.977 2.105 -0.000 -0.011 0.003 -0.000
2208 4 0.640 5.953 17.542 0.008 -0.000 -0.006 0.000
27247 4 -0.352 2.126 -2.518 0.003 -0.008 0.004 -0.000
2066 4 11.446 3.928 16.221 -0.004 -0.010 -0.001 -0.000
26705 4 9.513 4.553 0.182 -0.001 0.009 0.004 0.000
19488 4 -0.275 3.683 -0.586 -0.005 -0.006 0.001 0.000
6583 4 2.021 -2.329 11.080 0.005 0.000 0.003 -0.000
13180 4 5.851 3.887 9.593 0.007 -0.005 -0.008 0.000
13143 4 6.102 4.697 12.472 0.003 -0.006 -0.002 -0.000
5516 4 2.171 7.841 3.679 -0.003 0.002 -0.005 -0.000
6063 4 -2.983 11.014 1.109 0.011 0.012 -0.007 -0.000
982 4 11.087 6.507 -4.925 -0.006 -0.007 -0.004 -0.000
27574 4 -4.230 0.807 -0.406 0.019 -0.003 0.004 0.000
14351 4 -1.256 1.621 16.496 0.005 0.004 -0.012 -0.000
7384 4 -2.860 1.440 14.312 -0.004 0.014 -0.002 0.000
22875 4 -2.391 2.072 -1.908 -0.002 0.001 -0.003 -0.000
4955 4 -1.534 9.831 15.907 0.001 -0.001 -0.009 -0.000
13115 4 10.585 4.252 19.295 0.000 0.003 0.004 0.000
5839 4 2.050 12.172 12.199 -0.002 -0.002 -0.009 -0.000
9535 4 2.135 13.773 -2.900 0.000 0.005 0.003 0.000
20152 4 4.609 0.543 16.198 0.006 -0.005 0.000 -0.000
2201 4 -3.384 1.746 18.615 0.001 0.005 0.004 -0.000
492 4 0.484 10.732 0.871 0.005 -0.001 0.000 0.000
11552 4 8.766 6.472 12.742 -0.001 -0.006 0.003 0.000
9583 4 8.792 2.974 5.381 -0.009 0.002 0.006 0.000
528 4 11.134 6.679 12.026 0.001 0.002 0.002 -0.000
14188 4 1.974 7.376 10.703 -0.007 0.009 0.002 -0.000
6539 4 4.785 6.750 20.289 0.007 0.001 -0.006 -0.000
19264 4 7.052 11.019 -2.617 0.003 -0.005 0.012 -0.000
5315 4 3.797 13.160 17.255 -0.008 0.008 0.006 0.000
9962 4 5.615 -3.260 14.430 0.002 -0.006 -0.000 0.000
5335 4 -1.049 5.879 11.351 0.003 -0.006 0.000 0.000
6996 4 14.602 5.086 17.290 0.008 -0.008 0.011 -0.000
3082 4 9.442 5.066 -3.713 0.006 0.005 -0.002 0.000
7542 4 -1.383 4.414 18.319 0.002 0.001 0.016 0.000
1736 4 1.510 9.753 6.268 -0.001 -0.003 -0.012 -0.000
944 4 4.343 4.551 -5.200 0.008 -0.003 -0.003 -0.000
16209 4 2.501 -0.878 15.442 -0.001 -0.006 -0.000 -0.000
18523 4 -1.272 6.986 -2.126 -0.016 -0.005 -0.012 0.000
13916 4 -0.746 12.380 2.365 0.002 0.010 0.008 -0.000
2046 4 3.961 2.987 16.211 -0.001 0.005 0.007 -0.000
24378 4 1.641 9.004 14.762 0.001 0.001 -0.014 -0.000
17489 4 5.279 12.315 15.529 0.002 0.005 0.005 -0.000
5227 4 1.438 6.589 7.781 -0.008 -0.004 -0.003 -0.000
1760 4 6.407 9.646 3.597 -0.008 -0.008 0.011 0.000
785 4 -1.459 8.622 0.431 0.004 0.008 0.009 0.000
6921 4 5.492 10.287 0.943 -0.003 -0.000 0.002 -0.000
18965 4 5.570 4.244 2.000 -0.006 -0.011 -0.010 0.000
6959 4 -4.161 14.774 15.041 -0.001 0.000 -0.004 0.000
13111 4 7.901 2.950 13.239 0.009 -0.001 -0.002 0.000
3143 4 -2.894 3.057 16.277 -0.002 -0.008 -0.002 0.000
20478 4 2.423 0.322 11.269 -0.003 -0.006 0.002 0.000
4091 4 0.237 3.203 5.768 0.008 0.002 0.006 0.000
9097 4 1.741 13.294 9.394 0.005 -0.001 -0.011 0.000
3203 4 12.827 4.893 12.524 0.002 -0.002 0.007 -0.000
5221 4 10.178 5.902 15.517 0.007 0.006 -0.001 0.000
3722 4 3.820 9.856 -5.279 -0.005 0.009 -0.010 0.000
23506 4 -3.318 13.347 2.105 -0.002 -0.006 -0.003 -0.000
5235 4 -5.799 5.531 18.050 -0.008 -0.010 -0.000 0.000
1367 4 3.291 5.562 17.727 -0.001 0.007 0.003 -0.000
9565 4 7.686 10.541 19.236 0.005 -0.004 0.013 -0.000
2133 4 1.875 -0.810 3.434 0.012 -0.008 -0.006 -0.000
5676 4 1.019 13.280 6.547 0.019 0.002 0.003 -0.000
2458 4 10.972 0.072 14.188 -0.007 -0.003 -0.009 0.000
14359 4 3.803 8.456 9.286 0.001 -0.010 0.014 -0.000
5757 4 5.088 1.532 0.798 -0.000 -0.005 -0.006 -0.000
8644 4 13.867 -0.191 10.120 0.000 0.002 0.008 -0.000
2563 4 12.152 5.692 17.908 0.003 0.002 0.004 0.000
9525 4 0.220 0.922 4.835 -0.007 0.001 -0.001 0.000
4829 4 -4.173 14.176 -0.153 0.007 -0.000 0.002 0.000
613 4 -0.056 14.861 -0.399 -0.004 -0.001 0.004 -0.000
10727 4 5.734 0.522 13.469 0.004 0.000 0.001 0.000
7277 4 -0.895 1.054 13.045 -0.004 -0.007 0.002 -0.000
2977 4 14.345 2.573 16.832 -0.007 -0.005 0.003 -0.000
1973 4 3.797 13.804 11.858 0.001 0.003 0.009 0.000
2251 4 -1.637 14.515 15.949 0.011 -0.007 0.002 0.000
19009 4 8.829 10.026 2.469 -0.008 -0.002 -0.004 -0.000
4436 4 6.477 0.562 -1.743 0.001 -0.005 -0.001 0.000
6824 4 -0.987 10.368 12.797 -0.005 0.005 -0.008 -0.000
580 4 12.944 10.041 7.586 -0.002 0.002 -0.004 -0.000
7878 4 -1.298 11.797 17.083 -0.004 -0.008 0.001 0.000
12720 4 3.832 1.160 -1.356 0.009 -0.001 -0.005 0.000
4432 4 -1.174 2.540 3.596 -0.006 0.003 -0.007 0.000
5723 4 13.520 5.383 7.341 -0.003 0.005 -0.009 0.000
16004 4 5.513 0.531 11.057 0.004 0.006 -0.001 -0.000
8004 4 9.804 1.531 -5.214 0.007 -0.007 -0.008 -0.000
1871 4 12.304 13.082 15.806 0.004 -0.005 0.010 0.000
12786 4 -1.467 -0.735 5.727 0.005 -0.001 -0.005 0.000
203 4 9.009 6.795 7.059 -0.006 0.001 0.006 0.000
19267 4 2.024 14.392 -5.255 0.002 -0.000 -0.004 -0.000
3774 4 13.800 7.257 17.797 0.009 0.005 -0.004 -0.000
1295 4 6.785 -1.648 -3.501 -0.001 0.008 -0.002 -0.000
16764 4 -1.886 8.567 13.875 0.004 -0.004 0.008 0.000
6067 4 0.310 7.492 12.769 -0.007 -0.007 -0.015 -0.000
20542 4 -3.428 7.493 19.906 0.000 -0.007 0.003 0.000
16208 4 11.640 11.061 16.635 -0.002 0.005 -0.000 -0.000
9053 4 -4.593 3.585 13.678 -0.004 -0.007 0.001 -0.000
1062 4 -2.479 12.377 10.630 -0.004 0.004 0.001 -0.000
3296 4 -5.465 1.458 15.114 0.004 0.002 0.009 -0.000
4511 4 6.560 2.831 -2.631 0.005 0.002 0.015 0.000
6147 4 0.718 14.349 14.553 0.011 0.004 -0.001 0.000
7704 4 -1.685 -1.118 9.391 -0.005 0.003 0.012 0.000
11168 4 1.586 5.167 3.803 0.009 0.001 0.005 0.000
11191 4 10.743 4.003 11.006 -0.012 0.000 -0.002 0.000
1220 4 5.755 3.558 18.094 0.004 0.003 0.004 -0.000
10031 4 10.954 8.965 13.516 -0.004 -0.006 -0.005 -0.000
18481 4 3.284 -2.387 1.970 -0.001 0.011 0.001 0.000
445 4 9.041 -1.300 -3.518 0.004 0.004 0.004 0.000
8656 4 9.427 -0.263 -1.171 0.002 -0.001 -0.011 -0.000
504 4 9.333 -0.094 2.903 -0.001 0.008 0.008 -0.000
6187 4 -1.261 3.854 20.503 -0.009 0.002 0.004 0.000
3616 4 -1.971 6.939 18.069 0.000 -0.008 -0.002 0.000
1608 4 9.512 10.893 17.581 0.003 0.009 -0.007 -0.000
2210 4 11.799 11.274 14.167 -0.005 0.009 0.003 0.000
31595 4 -3.578 3.935 5.530 -0.001 0.001 -0.002 0.000
4547 4 -3.575 11.183 13.249 0.014 0.002 0.011 -0.000
12393 4 11.752 3.338 8.258 -0.000 0.013 -0.004 -0.000
1609 4 8.843 7.981 -2.248 -0.007 0.005 -0.000 0.000
1281 4 6.758 1.114 6.083 -0.004 0.003 0.007 0.000
9487 4 -3.325 -2.136 -3.314 0.014 0.003 -0.008 -0.000
2001 4 11.627 6.210 20.180 0.008 0.008 0.002 -0.000
2860 4 -0.216 14.532 -3.599 -0.000 0.001 -0.008 -0.000
9402 4 0.645 -1.654 1.355 -0.003 -0.002 0.002 -0.000
5360 4 12.147 2.742 13.477 -0.001 0.014 -0.009 0.000
19764 4 5.114 9.910 -1.379 0.005 -0.010 -0.003 0.000
23632 4 2.216 -0.793 5.841 -0.000 0.002 0.002 0.000
22436 4 12.815 7.756 -3.706 0.009 0.008 -0.004 0.000
88 4 0.035 -1.185 -1.807 0.006 0.005 0.003 -0.000
1226 4 9.573 1.758 1.200 -0.006 0.004 -0.000 -0.000
2867 4 7.470 3.111 -4.797 0.000 -0.005 0.010 -0.000
18924 4 1.164 13.155 1.399 -0.010 0.003 0.009 0.000
3283 4 6.523 -0.248 15.773 -0.010 0.006 0.002 0.000
23659 4 0.480 12.681 -1.376 0.009 -0.002 0.007 -0.000
2802 4 13.168 6.624 10.405 -0.006 -0.011 0.003 -0.000
444 4 7.823 1.054 10.325 -0.002 0.002 -0.004 -0.000
1790 4 10.824 -2.464 2.468 -0.017 0.001 0.001 -0.000
23831 4 7.647 7.125 0.205 0.015 -0.002 0.001 -0.000
6880 4 -0.344 7.626 15.414 -0.002 -0.007 -0.008 0.000
9981 4 12.669 2.515 -2.334 0.012 0.001 -0.001 -0.000
5852 4 2.955 9.731 1.174 -0.012 -0.008 -0.010 0.000
19307 4 1.567 2.643 3.508 -0.010 0.002 0.003 0.000
2407 4 0.054 3.345 9.054 -0.006 0.002 -0.005 -0.000
1767 4 12.948 2.317 3.612 -0.007 0.002 -0.000 -0.000
1632 4 7.269 6.220 9.096 -0.007 0.005 0.005 -0.000
1781 4 11.073 6.255 -2.217 0.006 -0.004 -0.004 0.000
1701 4 8.791 14.319 -0.173 -0.008 -0.007 0.007 -0.000
820 4 10.422 -3.064 -5.593 0.010 -0.008 -0.003 0.000
7219 4 -3.699 12.683 4.714 -0.003 -0.011 0.001 0.000
977 4 5.080 14.559 -3.735 0.005 0.012 -0.005 0.000
16606 4 2.389 14.676 18.872 -0.003 -0.000 0.003 0.000
13588 4 -5.568 10.559 8.983 -0.008 0.002 -0.003 -0.000
1284 4 4.442 -2.104 16.593 -0.012 -0.012 -0.006 0.000
897 4 -0.267 8.483 7.446 0.011 0.004 0.002 0.000
3048 4 2.505 15.660 11.269 -0.013 -0.004 0.006 0.000
875 4 6.048 8.069 8.641 0.003 -0.000 0.004 0.000
2209 4 13.445 7.896 13.246 0.006 -0.000 0.004 0.000
22957 4 -0.038 9.163 -2.102 0.001 -0.002 -0.001 -0.000
6146 4 -4.270 5.213 16.087 -0.001 0.003 0.001 -0.000
13240 4 0.514 11.865 4.493 0.003 0.002 -0.009 0.000
2895 4 0.349 11.721 14.997 -0.006 -0.007 -0.001 -0.000
7040 4 -3.295 12.753 17.237 0.003 -0.005 -0.007 -0.000
7303 4 -3.857 2.649 2.183 -0.004 0.001 0.009 -0.000
9884 4 -4.769 13.895 10.087 0.000 0.006 -0.002 -0.000
6480 4 -1.008 -0.517 2.982 0.011 -0.010 -0.003 -0.000
962 4 6.813 14.570 4.198 -0.000 -0.006 -0.004 -0.000
4592 4 -0.925 12.730 12.830 -0.003 -0.010 -0.004 0.000
19342 4 3.778 9.364 4.057 0.001 -0.016 0.004 -0.000
6032 4 13.407 10.112 18.377 0.007 -0.002 0.004 0.000
2514 4 7.883 1.819 8.233 0.001 -0.004 -0.006 -0.000
2974 4 5.678 11.302 18.238 0.001 -0.011 0.003 0.000
7393 4 -3.758 4.880 11.433 -0.002 0.003 -0.003 -0.000
4517 4 11.432 11.026 0.728 -0.000 -0.003 -0.006 -0.000
23778 4 -0.230 6.151 -0.013 0.007 0.003 0.003 -0.000
8784 4 3.031 14.011 4.481 0.001 -0.007 -0.002 -0.000
2124 4 5.714 11.151 20.835 0.000 -0.001 -0.013 0.000
9058 4 -3.304 8.388 1.926 0.000 0.005 0.006 -0.000
2414 4 7.378 8.327 18.854 -0.001 0.005 -0.007 -0.000
20227 4 -3.123 7.686 15.585 -0.004 0.012 0.009 0.000
17364 4 -3.608 9.247 -0.794 -0.004 -0.007 0.011 0.000
2666 4 0.053 8.196 18.785 -0.009 0.005 0.001 0.000
9486 4 0.349 14.290 11.221 0.001 0.003 -0.006 -0.000
3702 4 5.322 7.490 17.029 0.010 0.002 -0.006 0.000
206 4 7.518 11.824 16.621 0.004 0.002 0.001 -0.000
19643 4 -3.638 2.241 8.149 0.000 -0.000 -0.001 0.000
12396 4 6.141 13.048 13.025 -0.004 0.002 0.006 -0.000
9568 4 0.352 1.154 1.953 -0.004 -0.004 0.008 -0.000
81 4 -2.693 9.569 18.240 0.009 -0.015 0.002 0.000
10361 4 7.259 -1.710 12.798 -0.008 -0.001 -0.008 0.000
3189 4 4.128 7.564 2.279 -0.003 0.004 -0.002 0.000
4555 4 0.614 3.612 11.866 -0.006 -0.001 0.005 -0.000
10769 4 11.319 3.359 1.840 -0.001 -0.004 -0.006 -0.000
1678 4 12.448 14.276 -0.193 -0.003 -0.002 0.005 0.000
403 4 13.994 3.099 5.718 0.006 0.008 -0.003 0.000
6477 4 8.111 1.145 16.869 0.004 -0.002 0.004 0.000
2215 4 3.377 0.269 1.817 -0.006 0.001 -0.003 -0.000
27578 4 12.646 13.088 -3.485 0.005 -0.006 0.003 0.000
1135 4 -2.002 2.284 0.950 -0.005 -0.009 -0.002 -0.000
5834 4 -2.380 12.463 15.019 0.001 -0.002 0.001 -0.000
27690 4 2.362 -1.062 -0.725 0.003 -0.004 -0.002 -0.000
42 4 1.142 3.791 19.258 0.006 -0.008 0.007 0.000
641 4 -1.178 13.670 5.907 -0.010 -0.010 -0.003 0.000
5876 4 -5.033 8.108 10.336 -0.004 -0.003 -0.000 0.000
19814 4 6.472 5.319 -3.946 0.007 0.002 0.002 -0.000
5686 4 9.024 10.575 5.143 0.004 0.008 0.013 -0.000
1285 4 -3.057 11.333 7.588 0.004 -0.004 -0.002 0.000
22958 4 11.510 -1.782 -0.738 0.006 -0.004 0.006 -0.000
2218 4 13.045 12.185 2.410 0.000 0.002 0.003 -0.000
4038 4 -0.889 3.305 14.409 0.001 0.010 0.002 -0.000
2487 4 10.733 -2.270 10.175 -0.004 -0.004 -0.005 -0.000
125 4 11.387 0.204 -3.167 0.001 -0.007 -0.004 0.000
1297 4 10.456 8.576 10.668 0.005 0.003 0.008 0.000
2164 4 -1.756 2.264 6.117 0.001 0.005 0.007 0.000
23635 4 7.472 13.993 15.412 0.007 -0.003 -0.000 -0.000
6518 4 3.075 13.139 14.881 0.012 0.004 -0.006 -0.000
424 4 6.386 -1.750 5.228 -0.006 0.000 -0.008 0.000
10791 4 7.826 -1.438 7.195 0.004 -0.003 -0.004 -0.000
13178 4 -2.266 14.519 -1.784 0.002 -0.001 0.011 -0.000
6548 4 -0.533 6.449 19.861 -0.006 0.010 0.006 0.000
11454 4 2.163 15.605 6.444 0.001 -0.004 0.001 0.000
15584 4 -4.022 -1.473 18.610 -0.006 0.003 -0.005 0.000
5114 4 5.098 13.389 8.903 -0.004 0.005 -0.002 0.000
31430 4 -3.676 6.815 -0.463 0.010 0.002 -0.008 -0.000
13520 4 -1.815 -0.130 19.108 0.001 0.002 -0.008 0.000
19785 4 0.100 -1.872 7.609 0.009 -0.003 0.014 -0.000
18457 4 4.449 1.121 -3.926 -0.002 0.016 -0.005 0.000
5789 4 3.540 0.870 9.050 0.006 0.012 0.000 -0.000
168 4 8.375 15.276 2.450 -0.000 0.000 -0.003 0.000
566 4 2.274 14.777 16.395 0.003 -0.002 -0.005 -0.000
19096 4 4.188 7.443 -4.182 0.001 -0.003 0.005 -0.000
2967 4 -0.071 13.324 19.027 -0.002 -0.001 -0.002 0.000
1673 4 13.748 3.918 1.565 0.001 0.012 -0.004 0.000
161 4 -4.107 -0.631 7.228 -0.003 -0.012 0.003 0.000
11555 4 13.395 0.275 17.652 -0.006 -0.009 -0.004 0.000
247 4 9.508 12.505 8.624 0.004 -0.007 -0.002 0.000
31992 4 -1.099 0.600 7.787 -0.009 0.006 -0.007 0.000
1111 4 -1.826 15.326 3.450 0.007 -0.013 0.005 0.000
1807 4 0.791 0.768 -0.542 0.002 0.009 -0.000 -0.000
123 4 5.464 14.588 2.470 0.007 -0.000 0.007 -0.000
5877 4 10.864 9.846 -4.184 0.012 0.001 0.008 -0.000
6589 4 7.403 5.466 18.870 -0.007 0.002 0.012 0.000
25895 4 2.144 10.463 -1.587 0.004 0.001 -0.001 -0.000
20916 4 0.130 3.442 16.794 -0.002 0.005 -0.015 -0.000
9509 4 12.289 -0.487 8.452 -0.009 0.001 0.007 -0.000
3345 4 5.137 13.732 20.177 -0.006 0.001 0.008 0.000
9084 4 4.547 -1.459 -2.061 0.005 -0.003 0.001 0.000
1658 4 8.294 10.342 8.131 -0.005 -0.003 0.001 0.000
19224 4 10.233 12.391 -4.304 0.003 -0.006 0.001 0.000
5080 4 12.571 11.709 -1.181 0.009 0.001 0.010 0.000
15188 4 1.591 11.885 20.904 -0.002 0.005 -0.003 0.000
20669 4 14.313 2.048 13.933 0.003 -0.003 0.011 -0.000
9974 4 -3.418 1.489 4.228 -0.004 -0.008 -0.004 0.000
1705 4 0.362 15.763 1.822 0.004 0.010 -0.007 0.000
6427 4 -4.221 15.111 4.625 0.005 0.007 -0.002 -0.000
2984 4 4.389 13.868 -1.481 -0.005 -0.001 0.009 -0.000
6066 4 0.658 14.501 4.240 0.014 -0.001 -0.000 -0.000
2427 4 11.462 10.395 3.323 0.001 -0.006 0.004 -0.000
19694 4 4.666 -1.599 -4.664 -0.007 0.006 -0.004 0.000
5352 4 7.654 13.323 10.854 -0.001 -0.010 -0.012 0.000
27068 4 4.990 -0.997 0.482 0.003 -0.005 0.003 -0.000
174 4 -1.404 9.927 2.716 0.012 -0.005 -0.003 0.000
3420 4 12.334 7.604 7.341 -0.000 -0.002 0.004 -0.000
7666 4 9.146 -2.261 18.004 -0.003 0.010 0.006 -0.000
2191 4 9.920 14.613 -2.269 -0.008 0.002 -0.001 0.000
900 4 -3.031 14.839 18.862 -0.005 0.002 0.004 0.000
575 4 -4.339 5.437 3.249 -0.003 -0.002 -0.000 -0.000
17239 4 -1.535 1.670 9.915 0.013 0.005 -0.010 0.000
1669 4 14.485 -2.634 2.994 0.007 -0.002 -0.004 -0.000
2493 4 9.806 12.763 15.524 0.006 -0.000 -0.001 -0.000
1382 4 2.954 15.108 -0.025 -0.014 0.001 0.004 0.000
3333 4 11.920 12.302 19.055 0.007 -0.006 -0.002 -0.000
6654 4 6.581 13.959 18.021 0.001 0.002 0.003 0.000
3284 4 11.813 -1.335 16.685 0.001 0.006 0.004 -0.000
1646 4 14.004 6.774 2.430 -0.011 -0.006 -0.002 -0.000
1656 4 3.973 -1.652 4.669 0.003 -0.003 -0.007 0.000
14345 4 9.252 -0.507 9.096 -0.004 -0.006 0.006 0.000
1753 4 10.566 12.833 -0.631 0.001 -0.003 -0.016 -0.000
488 4 -4.626 10.088 6.050 -0.002 -0.002 0.002 0.000
608 4 11.375 -0.656 -5.095 -0.000 0.005 -0.006 -0.000
18583 4 11.408 8.830 -1.700 -0.004 0.001 -0.003 -0.000
27771 4 -1.246 0.219 -3.878 0.004 0.006 0.008 -0.000
19483 4 -2.455 11.838 -2.903 0.005 0.001 0.006 -0.000
7677 4 10.135 -0.378 11.161 0.002 -0.000 0.001 0.000
5755 4 -1.673 4.179 -2.871 -0.015 -0.005 -0.003 -0.000
6586 4 3.311 1.444 14.316 0.004 -0.009 -0.001 -0.000
18018 4 12.575 4.523 -4.026 -0.004 -0.003 0.005 0.000
19210 4 -2.760 8.279 4.221 0.001 0.005 -0.001 -0.000
2488 4 9.872 -2.786 7.204 0.007 0.003 0.003 0.000
647 4 11.121 8.092 2.378 0.005 0.002 0.005 0.000
20617 4 -1.217 8.917 20.424 0.009 0.005 0.008 -0.000
13479 4 -3.632 0.353 -2.530 0.003 -0.004 0.006 0.000
13158 4 -4.701 -2.166 9.290 -0.004 0.006 0.006 0.000
10730 4 12.299 2.684 18.047 0.010 -0.007 -0.004 -0.000
2225 4 13.644 14.653 18.680 -0.002 -0.005 0.000 0.000
19353 4 12.525 11.514 -5.658 -0.005 -0.001 -0.007 0.000
845 4 0.143 1.907 18.568 -0.004 -0.004 -0.001 -0.000
10374 4 14.346 9.923 2.774 -0.000 -0.016 -0.007 -0.000
5711 4 -4.915 0.478 9.749 -0.003 -0.013 0.001 0.000
27860 4 1.033 -0.324 13.283 0.005 0.001 0.010 0.000
9946 4 13.148 -1.646 11.635 -0.007 -0.004 -0.001 0.000
8725 4 8.092 0.331 13.839 -0.012 -0.001 0.002 -0.000
16140 4 5.592 15.107 15.515 0.006 0.000 0.001 0.000
4477 4 -2.198 7.960 -4.242 -0.001 -0.001 -0.005 -0.000
10563 4 4.677 -1.384 7.348 -0.002 0.006 -0.005 0.000
3264 4 12.725 9.618 11.502 -0.001 -0.003 0.003 -0.000
2029 4 13.535 1.632 20.328 -0.008 0.004 -0.003 -0.000
19281 4 -4.969 5.661 -5.640 -0.002 0.002 -0.010 0.000
13477 4 6.829 -2.109 -1.237 -0.002 -0.006 -0.003 0.000
1863 4 11.333 14.395 3.227 0.015 0.003 0.004 0.000
3435 4 -2.612 8.719 8.355 -0.000 -0.004 0.008 0.000
8390 4 12.815 14.005 5.499 0.012 -0.004 -0.010 -0.000
6463 4 8.040 -1.790 10.350 0.012 -0.002 0.008 -0.000
521 4 -3.051 13.975 8.037 0.005 0.001 0.007 0.000
1770 4 6.251 15.363 21.208 0.016 -0.004 0.003 -0.000
1665 4 13.113 12.214 12.037 0.000 0.001 -0.007 -0.000
427 4 13.593 5.249 4.465 0.000 0.012 0.007 -0.000
31474 4 -3.368 2.808 -5.607 0.004 0.003 -0.005 -0.000
26779 4 0.263 7.059 -4.431 -0.010 -0.003 -0.004 -0.000
1386 4 2.361 5.617 -3.985 0.007 0.001 0.001 0.000
5920 4 -3.987 10.401 15.995 -0.001 0.001 -0.010 0.000
19734 4 0.499 4.528 -4.186 -0.007 0.000 0.008 -0.000
9124 4 13.698 0.191 5.617 0.008 -0.008 -0.007 -0.000
5480 4 -4.006 -0.043 1.973 -0.000 -0.017 0.003 0.000
4557 4 6.995 13.967 -2.181 0.009 -0.002 0.001 0.000
7272 4 4.861 12.711 4.789 -0.004 0.007 0.003 0.000
15351 4 -4.953 0.672 12.894 0.001 -0.004 -0.003 -0.000
5402 4 12.008 12.443 7.501 -0.001 -0.000 -0.005 -0.000
19253 4 -4.371 6.506 -2.974 0.007 -0.000 -0.009 0.000
3425 4 14.554 10.920 5.410 -0.007 0.003 -0.006 -0.000
5759 4 4.025 4.608 21.226 0.004 -0.001 0.000 0.000
7021 4 -2.136 11.884 19.651 -0.001 -0.001 -0.010 0.000
6224 4 -1.558 15.055 20.844 -0.004 -0.005 0.010 0.000
2830 4 14.689 -1.278 7.465 0.004 0.007 -0.003 -0.000
27870 4 6.924 -2.180 -6.134 -0.002 -0.004 0.013 -0.000
2449 4 3.723 -0.877 13.381 -0.007 0.010 0.010 0.000
1704 4 -5.000 8.329 -4.402 0.008 0.001 0.001 0.000
5712 4 13.420 -1.426 0.948 -0.000 -0.007 -0.003 0.000
19690 4 -0.804 12.316 -4.706 -0.006 -0.001 -0.000 -0.000
526 4 11.848 11.481 9.792 -0.007 -0.001 0.010 0.000
8606 4 0.936 -0.980 -5.050 -0.011 0.001 0.000 -0.000
2452 4 10.403 13.155 4.948 -0.007 0.002 0.014 0.000
19662 4 13.328 1.381 0.975 -0.005 -0.006 -0.003 -0.000
3286 4 9.144 5.967 20.764 0.010 -0.017 0.000 0.000
3191 4 11.298 14.669 8.659 -0.011 0.002 0.003 -0.000
19052 4 7.134 7.715 -3.995 0.002 -0.002 -0.005 -0.000
12326 4 10.923 1.688 -0.774 0.009 0.000 -0.004 0.000
223 4 10.022 12.485 1.924 -0.000 0.001 -0.018 -0.000
3016 4 1.587 9.179 20.130 0.002 0.004 0.008 0.000
19293 4 0.142 -0.466 10.972 0.002 0.005 0.005 0.000
18648 4 -4.966 12.508 -6.099 -0.007 0.001 -0.004 0.000
8692 4 2.027 -2.123 -3.239 0.009 0.000 0.007 -0.000
2451 4 11.325 -0.538 19.111 0.011 -0.003 0.002 -0.000
447 4 2.434 2.807 -4.613 -0.003 0.008 -0.002 -0.000
23399 4 -1.724 14.780 -5.524 0.009 -0.003 -0.002 -0.000
16564 4 -1.161 9.856 -4.316 0.001 0.009 0.006 0.000
9123 4 11.846 0.212 2.813 0.008 0.005 -0.001 -0.000
19201 4 -4.218 11.719 -0.789 -0.005 -0.006 0.000 -0.000
3739 4 8.926 0.358 19.131 -0.000 -0.003 -0.004 0.000
1082 4 -4.367 9.758 19.983 -0.005 0.006 0.003 -0.000
4610 4 0.632 -1.939 20.650 -0.014 -0.006 -0.003 -0.000
2918 4 7.777 13.534 20.132 0.005 -0.002 -0.000 -0.000
8370 4 -3.905 6.298 5.923 0.000 -0.006 -0.000 0.000
9082 4 14.318 4.414 9.945 0.004 -0.006 -0.003 0.000
7239 4 11.500 14.173 13.554 0.001 -0.002 -0.006 0.000
9131 4 12.831 -2.426 14.486 -0.010 0.004 -0.002 -0.000
1179 4 -3.190 10.545 -4.866 0.010 -0.004 -0.004 -0.000
30201 4 8.757 -1.054 16.229 -0.001 0.006 -0.000 0.000
5623 4 13.574 13.776 9.500 0.002 -0.006 0.003 -0.000
5431 4 13.180 5.884 -1.763 -0.016 -0.003 0.012 -0.000
1124 4 -5.077 8.379 17.355 0.000 -0.002 -0.002 -0.000
7868 4 -3.630 14.118 -4.349 0.004 0.007 -0.002 0.000
23626 4 -5.058 7.646 4.214 -0.003 -0.006 0.010 -0.000
17003 4 2.427 6.547 19.889 -0.003 0.006 0.003 -0.000
1404 4 7.047 14.601 8.741 -0.002 0.004 -0.007 -0.000
7448 4 -3.685 5.212 19.194 0.004 -0.001 -0.003 -0.000
2174 4 13.101 10.311 -3.436 -0.000 -0.006 0.002 0.000
12387 4 -4.626 10.251 3.545 0.007 -0.014 -0.003 0.000
851 4 4.465 -3.224 12.395 0.000 -0.014 0.002 -0.000
18843 4 10.773 -2.077 12.962 0.004 0.003 -0.014 0.000
14000 4 -4.565 0.289 20.544 -0.005 0.000 -0.003 -0.000
27211 4 6.393 7.636 -1.761 -0.003 0.003 0.008 0.000
10332 4 12.837 0.010 -1.087 -0.001 0.010 -0.008 -0.000
23835 4 -5.257 6.322 1.181 -0.006 0.011 0.003 0.000
2339 4 7.001 12.538 -4.504 -0.007 0.004 -0.002 0.000
8373 4 -4.852 3.770 -2.402 0.004 -0.004 0.004 0.000
20240 4 -2.896 -1.252 21.023 0.002 0.010 0.004 0.000
23998 4 5.493 9.777 -3.947 -0.006 -0.001 0.009 0.000
2836 4 13.960 11.839 20.866 0.003 0.002 -0.013 0.000
26685 4 -4.521 -1.114 -5.317 -0.001 -0.002 -0.002 0.000
13200 4 2.033 7.517 -5.908 -0.001 0.003 0.006 0.000
170 4 1.467 10.829 -4.742 -0.000 -0.009 -0.003 -0.000
2183 4 13.988 12.404 17.813 -0.004 -0.003 0.002 -0.000
16059 4 13.932 4.934 19.398 0.001 0.004 -0.001 0.000
14879 4 -2.196 15.212 9.736 -0.005 0.004 0.003 0.000
11689 4 -1.477 -1.257 13.689 0.002 -0.001 -0.000 0.000
7116 4 7.709 11.981 3.794 0.001 0.002 -0.006 0.000
19702 4 5.883 -2.100 2.844 0.013 -0.005 -0.005 -0.000
28116 4 -5.372 12.571 15.980 -0.005 -0.002 -0.011 -0.000
1060 4 8.264 14.422 -5.339 0.003 0.009 0.002 0.000
7320 4 -1.610 -1.088 16.488 0.003 -0.000 0.005 0.000
172 4 -0.639 2.933 -5.569 0.004 0.000 -0.014 -0.000
2678 4 5.065 15.890 12.272 0.008 0.002 -0.003 -0.000
11139 4 13.816 -0.382 14.579 -0.011 0.007 -0.003 -0.000
19230 4 14.032 6.237 -5.568 -0.003 -0.006 -0.006 -0.000
16073 4 11.076 1.809 20.213 0.004 -0.008 -0.023 0.000