ITEM: TIMESTEP
16000
ITEM: NUMBER OF ATOMS
32000
ITEM: BOX BOUNDS pp pp pp
-5.538947 76.018947
-5.226574 75.706574
-4.809128 75.289128
ITEM: ATOMS id type x y z vx vy vz q
174 4 6.550 5.965 9.584 -0.000 -0.004 -0.009 -0.000
406 4 12.764 3.319 1.471 0.012 -0.015 -0.004 -0.000
454 4 -1.523 -1.249 -3.273 0.003 0.010 0.001 0.000
488 4 8.091 7.278 6.248 0.000 0.003 -0.002 -0.000
494 4 3.431 -1.376 8.987 -0.002 0.006 -0.009 -0.000
529 4 -2.585 2.947 5.932 -0.009 -0.003 0.014 -0.000
531 4 -3.063 5.466 7.225 0.002 -0.005 -0.003 -0.000
539 4 3.718 5.848 14.350 -0.006 0.006 -0.001 -0.000
571 4 5.692 -0.964 1.936 -0.004 -0.005 0.000 -0.000
574 4 14.621 -3.673 0.748 -0.000 0.002 -0.005 -0.000
810 4 -1.118 -1.762 11.819 0.003 -0.005 0.003 0.000
847 4 8.653 1.018 3.762 -0.012 -0.007 -0.001 0.000
889 4 10.428 11.085 4.072 -0.004 -0.009 0.009 -0.000
890 4 9.156 1.607 8.422 0.011 0.014 -0.001 -0.000
891 4 2.709 6.858 9.783 -0.001 -0.004 0.004 -0.000
892 4 6.529 -2.750 14.226 -0.013 -0.005 -0.010 0.000
893 4 3.609 -0.835 4.145 0.002 -0.004 -0.005 -0.000
895 4 11.564 3.116 6.273 -0.012 0.000 -0.000 0.000
896 4 5.554 3.199 9.866 -0.004 0.003 -0.000 -0.000
927 4 2.930 11.733 -0.573 -0.003 0.000 -0.003 -0.000
971 4 2.952 11.093 12.224 0.013 0.007 -0.005 -0.000
972 4 1.787 10.242 -2.906 0.002 0.002 -0.000 -0.000
1206 4 0.043 0.946 -2.849 0.004 -0.003 -0.004 0.000
1208 4 8.204 -1.377 3.820 -0.003 -0.000 0.001 -0.000
1212 4 11.594 1.078 10.344 -0.006 -0.001 -0.009 -0.000
1216 4 7.470 -2.069 7.576 -0.014 -0.001 -0.008 0.000
1218 4 3.970 1.177 9.071 0.005 -0.003 -0.006 -0.000
1244 4 3.236 -2.910 13.682 0.004 -0.002 0.014 -0.000
1245 4 1.856 4.226 13.975 0.005 0.003 0.004 0.000
1248 4 2.418 -2.398 11.393 -0.000 0.009 -0.000 -0.000
1249 4 8.248 2.622 10.589 0.003 -0.000 -0.004 0.000
1250 4 9.200 4.356 8.645 0.005 0.001 -0.011 0.000
1285 4 -0.713 0.809 2.495 -0.013 -0.002 0.005 -0.000
1286 4 11.177 2.576 3.750 -0.012 -0.002 -0.002 -0.000
1287 4 6.920 12.609 9.385 -0.002 -0.003 -0.003 -0.000
1289 4 12.428 3.629 11.427 -0.007 0.008 0.005 0.000
1292 4 -0.873 0.707 12.785 -0.006 0.003 0.002 0.000
1293 4 1.488 1.173 20.793 0.006 -0.004 -0.001 -0.000
1295 4 9.767 0.075 -1.025 -0.004 -0.001 -0.006 0.000
1300 4 8.553 11.349 10.952 0.002 0.003 -0.001 0.000
1329 4 10.313 12.362 9.102 -0.000 -0.007 0.004 -0.000
1330 4 7.425 5.314 5.100 0.003 -0.011 0.004 0.000
1331 4 8.331 7.655 9.177 -0.005 0.003 -0.005 0.000
1335 4 1.131 2.626 6.834 -0.000 0.002 -0.004 0.000
1338 4 0.467 10.397 11.258 -0.010 0.010 0.001 0.000
1373 4 13.657 2.739 3.910 0.004 -0.007 -0.006 0.000
1375 4 4.952 7.816 8.678 0.006 -0.004 0.010 0.000
1610 4 -0.458 3.236 4.581 0.007 -0.005 -0.012 0.000
1644 4 2.800 1.871 12.809 0.011 0.003 0.007 -0.000
1646 4 4.070 5.307 8.203 -0.004 -0.007 0.004 -0.000
1650 4 0.707 -0.643 10.571 0.008 -0.012 -0.000 -0.000
1651 4 3.481 -0.141 11.242 0.001 0.008 0.002 -0.000
1654 4 7.236 -0.650 19.840 0.001 0.000 -0.009 -0.000
1655 4 5.879 -0.404 10.122 0.010 -0.004 -0.009 -0.000
1656 4 3.041 -4.666 4.634 -0.001 0.002 0.003 -0.000
1689 4 -2.949 4.035 3.831 -0.008 0.002 -0.015 -0.000
1690 4 7.457 7.270 1.621 0.005 -0.002 -0.001 0.000
1692 4 -1.431 10.098 -4.076 0.009 -0.002 0.008 0.000
1728 4 -2.874 6.363 4.673 0.009 0.004 -0.007 -0.000
1735 4 9.286 0.513 11.389 -0.003 -0.001 -0.005 -0.000
1767 4 2.177 7.640 7.711 -0.010 0.005 -0.012 0.000
2012 4 3.105 0.002 19.019 0.015 -0.003 0.008 -0.000
2045 4 5.675 11.002 7.535 -0.008 0.008 -0.010 0.000
2051 4 7.612 7.797 11.330 0.003 -0.000 0.010 0.000
2086 4 6.174 10.736 5.203 -0.003 -0.004 -0.004 0.000
2087 4 5.075 3.176 14.221 -0.002 -0.008 -0.002 -0.000
2088 4 8.838 3.018 5.323 0.006 0.007 -0.006 0.000
2089 4 5.136 12.584 17.787 -0.012 -0.002 -0.000 0.000
2092 4 12.791 9.541 5.097 -0.005 0.003 0.010 -0.000
2125 4 2.147 9.255 13.797 0.002 -0.004 -0.011 0.000
2129 4 -0.059 4.647 17.456 0.009 -0.004 0.003 -0.000
2134 4 8.952 0.923 15.835 0.002 -0.005 0.001 -0.000
2135 4 11.109 8.461 9.543 -0.004 -0.010 0.005 -0.000
2137 4 14.172 4.641 9.644 0.002 -0.006 0.007 -0.000
2165 4 8.418 10.830 19.199 0.001 -0.016 -0.003 0.000
2170 4 8.036 6.826 15.253 0.004 -0.003 0.001 -0.000
2173 4 10.510 14.286 12.722 0.009 0.005 -0.003 -0.000
2412 4 1.792 4.694 19.328 0.003 0.009 0.006 -0.000
2452 4 5.407 1.562 12.186 -0.003 0.003 -0.008 -0.000
2453 4 13.009 -2.732 19.666 0.002 -0.002 -0.005 0.000
2493 4 4.655 2.230 18.042 0.005 0.002 -0.006 0.000
2525 4 1.353 10.406 18.498 -0.001 -0.000 0.000 -0.000
2528 4 2.616 2.703 17.779 0.011 0.000 0.002 -0.000
2529 4 8.700 -1.101 17.987 0.004 -0.002 -0.006 -0.000
2532 4 12.842 6.816 10.282 -0.008 0.006 0.011 0.000
2573 4 13.284 8.934 11.661 0.004 0.004 -0.002 -0.000
481 4 2.038 -0.225 2.313 0.001 -0.007 -0.008 -0.000
2418 4 12.573 -3.784 16.406 0.001 0.007 -0.007 0.000
1609 4 12.666 -1.499 3.867 0.006 0.001 -0.004 -0.000
2022 4 10.349 6.054 15.111 -0.007 0.007 0.011 0.000
413 4 13.230 -3.964 2.864 -0.005 0.000 -0.002 0.000
1405 4 2.775 14.517 6.066 0.008 0.003 -0.002 0.000
2454 4 -0.301 6.241 12.141 0.004 -0.010 -0.001 -0.000
403 4 10.369 3.498 0.018 0.001 0.007 0.006 -0.000
2455 4 3.303 1.970 15.531 -0.001 -0.015 0.001 0.000
163 4 11.584 5.849 8.114 -0.003 -0.013 0.004 0.000
1815 4 11.803 9.358 2.500 0.005 0.001 0.006 -0.000
2490 4 6.363 8.091 13.352 0.001 0.005 -0.005 0.000
2044 4 4.910 6.669 11.220 0.008 -0.004 -0.007 0.000
2930 4 3.232 7.570 16.303 0.005 0.010 0.004 0.000
8370 4 1.028 2.139 1.538 0.001 -0.000 0.006 0.000
2179 4 11.410 3.458 9.238 -0.005 0.005 0.006 -0.000
19 4 4.633 1.161 1.925 0.001 0.009 -0.005 0.000
127 4 10.452 6.059 1.871 -0.002 -0.007 0.007 0.000
19809 4 13.782 5.173 5.763 0.015 0.008 0.003 0.000
2534 4 7.230 4.496 15.796 0.011 0.001 0.002 -0.000
3332 4 6.364 1.989 4.087 0.000 -0.010 -0.008 -0.000
1732 4 4.213 8.089 14.077 -0.006 -0.001 0.000 -0.000
1220 4 13.698 10.916 9.799 0.006 -0.007 -0.011 -0.000
11176 4 11.213 -5.119 10.258 0.004 -0.005 0.001 -0.000
964 4 1.744 4.182 2.209 0.007 -0.007 0.002 0.000
1055 4 8.695 10.325 8.630 -0.001 -0.006 0.005 0.000
1368 4 0.855 8.624 -0.687 -0.003 -0.003 -0.003 -0.000
19764 4 -3.006 9.248 5.045 0.005 0.002 -0.010 -0.000
2212 4 3.416 13.528 15.927 -0.008 0.005 0.009 -0.000
901 4 9.902 5.351 6.299 -0.001 -0.009 -0.003 0.000
1403 4 2.961 10.839 16.055 0.004 -0.003 -0.004 -0.000
2896 4 3.561 13.133 10.630 0.000 -0.006 0.006 -0.000
1684 4 -0.677 8.925 12.808 0.009 -0.002 0.003 0.000
2816 4 -0.398 -3.114 20.934 -0.003 0.004 0.000 0.000
851 4 9.040 -2.709 13.631 -0.002 0.013 0.003 0.000
8769 4 -0.567 5.819 6.200 -0.006 0.011 0.005 0.000
2483 4 5.601 6.371 16.137 -0.002 0.006 -0.002 -0.000
2603 4 8.765 5.469 12.661 0.009 -0.010 0.001 0.000
2965 4 4.353 0.050 16.670 0.006 0.003 0.011 -0.000
1765 4 1.104 1.823 14.650 0.003 0.012 -0.001 0.000
2176 4 -0.119 5.439 21.451 -0.002 -0.001 -0.009 -0.000
3247 4 3.442 4.362 10.575 0.014 -0.001 -0.006 -0.000
809 4 8.606 0.000 6.070 0.001 -0.002 0.006 0.000
88 4 -3.931 1.538 3.902 -0.011 -0.006 -0.000 -0.000
1727 4 -2.428 9.322 15.328 -0.004 0.001 -0.002 -0.000
492 4 5.892 3.734 7.303 0.007 -0.010 0.004 -0.000
2420 4 7.491 3.029 13.407 -0.001 -0.005 -0.009 -0.000
10774 4 10.243 3.425 12.270 -0.000 -0.001 0.012 -0.000
2417 4 -1.254 -1.269 14.523 0.012 0.001 0.008 -0.000
841 4 3.484 -0.986 0.260 0.001 -0.007 0.002 0.000
568 4 6.192 8.101 4.701 0.005 0.005 0.005 -0.000
979 4 11.855 6.793 5.144 0.004 0.004 -0.001 0.000
9968 4 4.799 4.698 4.995 0.006 -0.001 -0.005 0.000
444 4 1.563 5.018 8.120 -0.002 0.009 -0.000 0.000
864 4 11.495 -3.623 12.907 -0.001 -0.011 -0.009 -0.000
1376 4 13.389 10.929 3.271 0.005 0.015 -0.005 0.000
1649 4 5.575 4.106 12.080 0.000 0.004 0.006 -0.000
1211 4 3.868 -3.801 0.919 0.014 0.003 -0.000 -0.000
9563 4 0.119 -3.972 17.683 0.003 -0.005 0.006 0.000
1209 4 -0.050 -3.961 7.814 0.002 0.008 -0.015 -0.000
4520 4 3.078 -2.162 -1.834 0.009 -0.002 -0.003 -0.000
610 4 -0.937 3.734 7.702 0.002 0.008 -0.002 0.000
813 4 4.603 -4.242 -3.209 0.002 -0.001 0.002 0.000
19455 4 7.598 12.209 0.890 -0.005 -0.003 -0.006 -0.000
27937 4 2.531 4.108 -0.289 -0.008 -0.006 0.010 0.000
19816 4 0.611 8.030 -3.113 0.002 0.002 -0.003 -0.000
453 4 9.460 -2.195 5.642 0.006 0.002 -0.000 0.000
852 4 -0.032 3.640 -0.656 -0.000 -0.000 -0.004 0.000
572 4 10.328 7.783 7.256 -0.006 0.004 -0.018 0.000
19413 4 -2.297 0.002 4.996 0.005 -0.000 -0.009 0.000
1365 4 3.328 6.968 2.113 -0.004 0.000 -0.007 0.000
525 4 -1.615 10.698 6.621 -0.013 -0.003 -0.008 0.000
6117 4 6.175 -2.867 9.679 0.012 0.004 -0.007 0.000
1696 4 6.097 5.715 13.697 0.008 -0.016 0.002 0.000
1217 4 -1.124 3.550 1.977 0.009 0.010 -0.008 -0.000
2168 4 6.635 8.448 20.117 0.001 0.002 0.001 0.000
607 4 7.359 6.223 -1.384 0.004 0.003 0.005 0.000
523 4 3.117 6.201 6.007 -0.006 0.006 -0.003 -0.000
536 4 10.693 -0.366 4.441 0.002 0.002 -0.001 -0.000
1725 4 6.731 10.281 12.570 -0.006 -0.009 0.003 0.000
2130 4 6.804 9.603 10.076 0.002 0.007 -0.004 0.000
2946 4 14.863 0.103 17.138 0.003 -0.005 -0.004 0.000
566 4 -0.529 5.843 3.875 -0.003 -0.002 -0.002 0.000
1283 4 -2.976 3.293 14.181 0.004 0.001 -0.003 -0.000
132 4 0.937 -0.732 -0.976 0.003 0.008 0.001 0.000
206 4 11.277 10.433 6.920 -0.003 -0.007 -0.007 -0.000
1686 4 4.592 10.078 18.454 -0.003 -0.002 0.006 -0.000
9930 4 -2.484 7.013 9.402 0.011 0.011 0.004 0.000
4479 4 -1.065 1.019 15.220 -0.004 0.006 -0.003 -0.000
19325 4 6.933 1.216 -0.946 -0.005 -0.008 0.004 0.000
926 4 8.534 -3.927 9.622 0.004 -0.007 0.009 -0.000
208 4 3.464 13.015 1.714 -0.002 -0.001 -0.010 0.000
2106 4 1.334 7.924 11.729 0.001 -0.006 0.003 0.000
9974 4 12.831 0.744 5.307 -0.003 -0.006 -0.001 -0.000
2042 4 3.970 -3.754 6.950 -0.002 0.003 -0.003 -0.000
1702 4 9.531 10.931 15.978 0.006 0.005 0.017 -0.000
1096 4 4.786 10.883 0.867 0.001 0.005 -0.004 -0.000
9565 4 6.028 2.330 16.043 0.000 0.012 0.010 0.000
3062 4 10.888 3.312 19.119 -0.004 0.003 -0.001 -0.000
2047 4 4.487 8.522 20.755 0.007 0.000 -0.001 0.000
95 4 6.478 -0.385 5.420 -0.005 0.001 0.004 0.000
528 4 -1.246 -1.313 1.615 0.004 -0.005 -0.001 0.000
5758 4 1.197 2.055 9.551 0.001 0.005 -0.003 0.000
19736 4 9.395 3.662 2.280 -0.004 -0.004 0.005 0.000
2204 4 5.777 6.427 6.812 0.007 -0.007 0.003 -0.000
1012 4 9.713 9.113 12.174 0.009 0.001 0.002 0.000
2460 4 7.694 -1.797 11.611 -0.011 0.002 0.010 0.000
569 4 6.039 3.562 2.325 0.006 -0.009 0.004 0.000
1723 4 2.313 5.154 16.704 -0.004 -0.003 0.002 -0.000
19363 4 12.275 1.525 -0.220 -0.004 -0.003 0.002 -0.000
19682 4 -2.094 -0.354 9.626 0.014 -0.001 -0.007 0.000
858 4 8.704 -1.276 9.214 -0.007 0.003 0.004 0.000
1803 4 0.655 12.059 8.977 -0.008 -0.000 -0.009 -0.000
1661 4 10.403 -3.283 7.893 -0.007 0.002 -0.019 -0.000
1251 4 10.019 -2.749 10.870 0.001 -0.011 -0.004 0.000
7233 4 2.302 -0.643 15.270 0.001 0.005 -0.003 -0.000
19810 4 9.156 9.510 2.445 -0.006 -0.004 0.003 0.000
19773 4 2.154 0.703 -3.331 -0.000 0.002 -0.005 -0.000
1851 4 11.478 5.331 12.918 0.005 0.004 -0.006 -0.000
19771 4 -3.705 -0.796 0.361 0.003 -0.004 0.004 -0.000
55 4 -3.836 -2.006 12.990 0.007 -0.000 -0.002 -0.000
19814 4 5.308 7.914 -3.332 0.010 0.012 -0.015 -0.000
533 4 7.267 4.200 0.175 -0.009 0.001 0.009 0.000
91 4 9.360 10.432 -0.615 -0.001 0.011 -0.003 0.000
816 4 7.566 -3.740 -0.767 -0.000 0.007 -0.002 0.000
2934 4 7.250 6.932 18.088 -0.003 0.009 -0.005 0.000
2643 4 4.727 9.179 11.775 0.006 -0.007 0.001 0.000
6480 4 1.161 -0.800 12.975 0.009 0.001 0.000 -0.000
1761 4 1.200 6.644 14.496 -0.001 -0.005 -0.003 -0.000
2163 4 0.962 7.918 16.834 0.003 -0.010 0.003 0.000
456 4 10.722 2.236 -2.060 0.003 0.006 -0.012 -0.000
654 4 4.097 8.638 3.669 0.004 -0.006 0.001 0.000
5706 4 3.364 6.480 20.655 -0.002 0.006 0.004 -0.000
1281 4 2.368 -2.181 5.799 0.017 -0.008 -0.002 -0.000
1653 4 6.817 0.572 7.888 -0.006 0.000 0.008 0.000
1135 4 11.886 4.918 3.670 0.003 -0.013 0.002 0.000
1282 4 1.092 5.100 10.327 0.009 -0.005 0.010 0.000
19776 4 4.552 1.257 5.951 0.011 -0.004 0.007 0.000
170 4 -3.068 7.167 -0.780 -0.008 -0.003 0.006 0.000
1336 4 12.107 0.794 2.298 -0.004 -0.006 -0.003 -0.000
1606 4 -3.610 -3.621 2.358 0.014 0.005 0.008 -0.000
5036 4 1.946 7.561 4.367 -0.003 -0.001 -0.004 0.000
2124 4 2.500 8.019 18.828 -0.004 0.001 -0.003 -0.000
9539 4 -4.126 -3.953 16.575 -0.002 0.001 0.008 -0.000
19408 4 5.161 5.789 0.399 0.007 0.005 -0.006 0.000
2886 4 13.549 10.947 18.914 -0.010 0.009 -0.005 -0.000
140 4 4.600 14.326 3.906 -0.002 0.009 0.001 0.000
1303 4 4.745 -2.197 15.493 -0.007 -0.006 0.004 -0.000
3007 4 7.940 12.231 13.399 -0.006 0.002 0.004 0.000
2084 4 -0.032 -1.572 3.612 0.004 0.003 0.018 -0.000
2891 4 12.854 5.713 18.683 0.005 -0.001 -0.003 0.000
11180 4 12.748 0.874 18.700 -0.007 0.011 -0.007 -0.000
9966 4 6.073 -5.216 7.379 0.009 -0.013 -0.001 -0.000
19284 4 -0.331 -1.231 6.661 -0.005 0.006 0.001 -0.000
565 4 2.474 10.547 4.564 -0.004 0.005 -0.003 0.000
90 4 1.299 1.541 4.486 -0.020 0.004 0.006 0.000
445 4 -1.136 -4.691 0.099 0.004 -0.011 -0.005 0.000
16218 4 4.610 12.321 20.295 0.002 0.006 0.006 -0.000
412 4 -2.634 4.374 -0.379 0.002 0.004 0.004 -0.000
3048 4 -0.877 12.577 14.888 -0.015 -0.006 0.009 -0.000
1601 4 -0.477 -2.581 9.679 -0.004 -0.009 -0.006 -0.000
3264 4 6.762 3.721 17.979 0.011 -0.003 0.002 -0.000
1210 4 4.991 -1.167 7.116 0.001 0.011 -0.008 -0.000
2848 4 10.040 -3.119 16.254 -0.003 0.006 -0.006 -0.000
19721 4 -0.953 10.549 0.488 0.003 0.000 0.001 0.000
171 4 -1.299 8.433 1.208 -0.002 0.005 0.003 -0.000
9931 4 7.205 -0.667 15.946 -0.012 0.004 0.000 0.000
3668 4 5.993 -1.686 18.038 0.002 0.004 -0.002 0.000
2521 4 -1.583 7.077 15.911 0.007 0.000 0.007 -0.000
10380 4 5.086 -4.225 20.336 -0.005 0.003 -0.005 0.000
4598 4 -0.589 3.309 13.817 -0.002 0.009 -0.005 -0.000
2121 4 0.682 -4.057 4.862 0.001 0.002 0.002 -0.000
3700 4 9.010 5.655 17.434 -0.005 0.006 0.001 -0.000
485 4 0.114 7.573 9.346 0.003 0.007 -0.004 0.000
9165 4 1.906 4.707 4.746 0.001 0.016 -0.003 0.000
1322 4 0.641 12.955 11.596 -0.002 -0.010 -0.003 0.000
1721 4 -4.399 -1.960 18.160 0.004 -0.005 0.001 0.000
1688 4 -1.711 8.061 7.427 -0.003 0.001 0.002 -0.000
3287 4 10.785 -2.164 18.722 0.006 0.010 0.000 -0.000
9132 4 7.113 -2.763 5.081 -0.006 0.007 -0.000 -0.000
2018 4 10.765 -4.827 14.864 -0.007 0.010 0.007 0.000
2166 4 5.677 11.172 15.114 0.012 -0.009 0.007 -0.000
9895 4 8.638 2.482 18.418 0.003 -0.002 0.002 0.000
561 4 -0.310 12.211 2.517 -0.007 -0.001 0.006 -0.000
887 4 -1.757 6.046 1.748 0.006 -0.006 -0.006 -0.000
2488 4 1.856 -5.178 18.968 0.001 0.000 -0.005 -0.000
4234 4 -1.941 11.768 -2.427 -0.005 0.002 -0.003 0.000
8365 4 6.039 3.038 -3.746 -0.001 -0.013 0.008 0.000
601 4 0.441 12.149 -1.482 0.003 0.005 0.005 -0.000
3089 4 -5.449 10.088 14.630 -0.010 0.001 -0.010 0.000
19625 4 9.853 1.345 1.158 -0.002 0.003 0.005 -0.000
1642 4 -0.277 -0.075 19.170 -0.003 -0.000 -0.004 -0.000
1813 4 11.520 11.565 14.708 -0.009 0.001 -0.001 -0.000
6516 4 2.361 5.863 12.375 0.008 0.002 0.009 0.000
2209 4 4.719 11.006 10.221 0.000 -0.009 0.002 0.000
3008 4 3.708 14.666 18.366 0.000 0.006 -0.002 -0.000
19298 4 3.821 2.880 3.757 -0.001 -0.004 -0.006 0.000
846 4 5.525 -2.288 -1.447 0.009 -0.005 -0.001 0.000
10328 4 5.211 -4.544 16.279 0.002 -0.004 -0.003 -0.000
2605 4 0.055 14.334 9.329 0.012 0.004 -0.004 0.000
203 4 -0.734 8.016 3.891 -0.014 -0.004 -0.003 0.000
2932 4 12.744 3.133 14.143 0.003 -0.002 -0.001 0.000
122 4 -4.994 5.658 5.630 0.003 0.015 0.006 -0.000
605 4 2.922 9.039 0.658 -0.000 -0.012 -0.002 0.000
177 4 13.792 6.110 -2.261 0.001 -0.004 0.011 -0.000
86 4 -1.713 12.081 9.924 -0.000 -0.009 0.004 -0.000
19654 4 9.519 7.211 3.922 0.005 0.001 0.007 0.000
6111 4 -0.332 2.707 18.976 0.002 0.004 -0.001 -0.000
3065 4 12.823 10.388 16.489 0.001 0.006 0.001 0.000
1042 4 4.489 11.675 3.474 -0.001 -0.003 0.014 -0.000
19335 4 9.980 11.937 1.496 -0.009 -0.004 0.009 0.000
2094 4 5.016 -1.056 12.966 -0.010 -0.000 0.004 -0.000
1369 4 0.543 15.001 7.144 -0.005 0.006 -0.003 -0.000
1406 4 5.640 8.840 15.801 0.005 -0.004 -0.009 -0.000
19763 4 -1.709 2.635 -2.038 0.008 -0.003 0.002 -0.000
863 4 11.349 -1.269 14.803 -0.006 0.004 -0.009 0.000
16178 4 3.232 -3.337 19.530 0.004 -0.010 -0.010 -0.000
5399 4 1.071 11.881 6.300 0.008 -0.006 0.009 0.000
6951 4 -3.685 12.165 14.101 0.002 0.006 -0.005 0.000
2531 4 0.589 -1.204 17.031 0.004 0.001 -0.000 0.000
10780 4 4.531 4.256 16.545 -0.002 -0.000 -0.001 0.000
192 4 3.014 6.776 -0.205 -0.011 0.004 -0.005 0.000
614 4 7.064 12.915 3.611 0.008 0.001 0.016 0.000
8763 4 -2.066 -2.760 7.225 -0.007 0.009 0.008 0.000
2908 4 10.511 -0.163 17.241 0.005 -0.003 -0.003 0.000
9126 4 -3.270 -2.693 15.214 -0.006 0.003 0.004 0.000
96 4 -0.748 1.532 -0.116 0.009 -0.006 -0.005 -0.000
4874 4 -3.317 -0.931 3.049 -0.005 -0.003 0.008 -0.000
1005 4 3.556 12.169 6.120 -0.004 0.005 0.007 0.000
9168 4 -1.593 -1.963 -0.858 0.007 0.004 -0.002 0.000
5360 4 -0.056 9.774 8.635 -0.001 0.000 -0.006 0.000
5439 4 2.985 9.073 10.076 -0.004 0.005 0.008 0.000
23831 4 0.810 9.447 6.474 0.005 -0.004 -0.012 -0.000
6515 4 -4.241 7.094 16.216 0.008 -0.005 0.004 0.000
7717 4 3.392 -3.316 17.173 -0.001 -0.005 -0.003 0.000
19490 4 5.438 6.207 3.377 0.008 0.012 0.001 0.000
12795 4 1.741 1.915 -0.915 -0.006 0.006 0.012 -0.000
940 4 8.412 9.506 5.322 -0.001 0.015 -0.007 -0.000
1731 4 6.716 8.688 7.243 -0.003 -0.004 -0.011 0.000
18603 4 7.369 0.769 1.681 -0.001 0.004 -0.001 -0.000
19324 4 5.450 12.757 -1.323 -0.006 -0.011 -0.011 -0.000
6080 4 -1.871 -0.706 17.153 0.012 0.005 0.006 -0.000
294 4 2.849 10.914 8.324 0.013 -0.005 -0.000 0.000
1422 4 11.071 8.425 14.689 0.004 -0.008 0.008 0.000
1452 4 5.912 14.866 9.898 0.007 0.001 -0.006 -0.000
1372 4 4.160 8.525 6.658 -0.005 -0.003 0.002 -0.000
2881 4 -2.164 7.939 18.096 0.017 0.002 0.000 -0.000
1614 4 8.013 -4.286 6.717 0.009 -0.001 -0.011 0.000
2616 4 9.792 12.688 17.535 0.008 -0.002 0.005 0.000
2577 4 8.335 9.822 14.338 -0.007 -0.010 0.003 0.000
900 4 12.571 1.318 7.689 0.004 -0.003 -0.003 -0.000
9970 4 1.547 -3.375 15.626 0.003 -0.003 0.004 -0.000
1806 4 -3.451 10.635 8.086 -0.002 0.003 0.009 -0.000
648 4 5.287 8.009 0.809 0.000 -0.001 -0.002 0.000
576 4 8.837 12.588 -1.490 0.011 -0.003 0.003 -0.000
9487 4 1.378 0.053 7.939 -0.006 0.004 0.008 0.000
9088 4 5.031 -2.881 3.278 0.007 -0.010 0.014 -0.000
659 4 5.248 12.059 12.300 0.006 -0.006 -0.006 0.000
18934 4 6.656 8.619 -1.283 0.001 -0.002 -0.007 -0.000
19289 4 0.571 6.121 0.988 -0.001 0.009 0.002 0.000
933 4 12.628 11.801 0.348 -0.005 0.000 0.008 -0.000
23399 4 -2.469 7.179 -3.414 -0.002 -0.015 0.003 0.000
2619 4 7.652 9.157 16.970 0.009 -0.004 0.002 0.000
27962 4 -2.583 0.439 -1.650 0.004 0.001 0.003 0.000
691 4 10.959 8.249 0.527 -0.011 -0.009 0.005 -0.000
2185 4 9.165 8.582 19.015 -0.010 0.000 0.004 -0.000
3688 4 3.462 2.539 20.316 0.011 -0.003 -0.000 -0.000
613 4 3.307 12.672 -3.401 0.008 0.005 -0.003 0.000
138 4 5.923 9.729 2.844 -0.001 0.006 0.013 0.000
504 4 14.031 -0.273 8.650 -0.004 0.007 0.011 -0.000
126 4 -3.913 10.896 -4.053 -0.001 -0.014 -0.010 0.000
2860 4 11.363 0.672 13.203 0.008 0.012 0.006 -0.000
2524 4 -1.855 5.464 13.987 -0.001 -0.007 0.009 0.000
442 4 11.708 -1.139 0.611 -0.008 -0.002 -0.004 -0.000
6553 4 -4.007 7.944 7.004 -0.010 0.009 -0.009 0.000
13197 4 -0.816 -3.802 2.787 -0.001 -0.001 0.005 0.000
1252 4 -1.437 4.743 10.219 -0.006 -0.007 0.002 0.000
58 4 9.671 -2.968 -0.152 0.006 0.007 -0.002 0.000
2981 4 12.788 8.654 18.520 -0.006 0.004 -0.004 0.000
2144 4 9.711 3.228 14.568 0.004 0.011 -0.005 0.000
2610 4 13.913 13.257 20.630 0.001 -0.011 0.002 -0.000
7474 4 -0.779 12.885 18.412 -0.005 -0.003 -0.003 0.000
2853 4 4.513 4.952 18.841 -0.003 0.013 -0.000 -0.000
2021 4 9.744 -0.512 20.569 0.007 -0.005 -0.005 0.000
802 4 -3.857 1.099 13.264 0.012 -0.001 0.001 -0.000
19217 4 5.374 3.149 -1.072 -0.007 0.007 0.004 0.000
19292 4 5.604 13.071 -3.952 -0.005 0.004 -0.000 -0.000
1846 4 11.408 13.163 -1.356 -0.003 0.006 0.000 -0.000
8348 4 7.601 -1.564 -0.381 0.003 0.005 0.006 -0.000
23638 4 -2.709 -2.923 4.428 -0.003 -0.002 0.003 -0.000
2563 4 -3.558 9.916 13.253 0.003 -0.006 0.009 -0.000
3091 4 8.030 13.222 19.800 -0.003 0.001 0.011 -0.000
1707 4 4.779 7.281 18.371 -0.000 0.001 -0.004 -0.000
2446 4 -3.744 8.580 20.972 -0.007 -0.004 -0.005 -0.000
1693 4 4.520 13.682 8.185 0.002 0.005 0.011 -0.000
3845 4 -4.571 12.109 18.397 -0.010 -0.003 0.003 -0.000
4157 4 -3.537 3.423 1.815 -0.000 0.007 0.009 -0.000
1849 4 8.899 13.836 15.315 0.003 -0.012 -0.013 0.000
1773 4 14.337 9.138 2.023 -0.003 -0.002 -0.001 -0.000
9969 4 -2.945 -2.733 10.397 -0.008 0.000 -0.010 0.000
27966 4 0.218 -3.269 -2.702 -0.000 0.001 0.005 0.000
19931 4 11.085 14.385 1.291 0.001 0.008 -0.003 -0.000
491 4 8.359 1.247 -3.121 -0.001 -0.007 0.004 -0.000
2867 4 14.072 2.040 9.951 0.001 0.009 -0.008 -0.000
449 4 -2.110 9.244 10.220 -0.016 -0.000 -0.001 0.000
2406 4 -2.150 -2.929 18.179 0.001 0.001 0.007 0.000
3045 4 -0.944 10.260 17.402 0.000 0.001 -0.001 -0.000
23720 4 0.774 8.968 2.010 -0.000 -0.002 -0.001 0.000
2207 4 -1.096 10.689 13.846 0.006 -0.001 0.004 0.000
19730 4 4.596 10.009 -1.464 0.012 -0.006 0.006 -0.000
18607 4 3.192 7.847 -2.278 0.008 -0.010 -0.004 -0.000
4995 4 -2.492 7.490 11.927 -0.010 -0.005 0.001 0.000
217 4 11.851 -1.038 6.614 0.001 -0.008 0.002 -0.000
1409 4 0.382 6.815 19.460 0.000 -0.001 0.002 -0.000
888 4 -4.285 2.549 -1.909 -0.004 0.000 0.002 0.000
6550 4 -0.013 3.210 11.502 0.000 -0.002 -0.007 0.000
1367 4 -4.086 11.047 10.787 -0.003 -0.004 -0.015 -0.000
894 4 12.004 -3.197 5.314 -0.004 -0.001 -0.005 -0.000
980 4 1.957 12.957 4.229 -0.003 0.008 -0.002 0.000
697 4 12.630 8.339 -2.809 0.002 0.013 0.006 0.000
2506 4 10.580 2.271 17.043 0.003 0.001 -0.003 -0.000
3029 4 9.870 6.552 20.171 0.002 0.008 -0.008 0.000
1006 4 2.860 14.242 -0.900 -0.011 0.016 -0.006 -0.000
3253 4 8.622 9.062 21.181 -0.001 -0.004 0.006 0.000
573 4 12.621 13.210 -3.668 -0.004 0.008 0.002 -0.000
537 4 10.827 5.019 -2.229 -0.004 0.001 0.010 -0.000
19304 4 8.544 3.680 -1.883 -0.004 -0.004 0.009 -0.000
1779 4 8.497 14.237 2.313 0.002 0.006 -0.004 0.000
8330 4 9.426 -0.727 1.830 0.002 -0.010 -0.003 -0.000
2691 4 1.043 12.432 16.648 -0.001 0.003 -0.001 -0.000
3365 4 7.795 12.705 7.233 0.000 -0.002 -0.008 0.000
23469 4 2.341 11.151 1.826 -0.002 0.008 0.010 -0.000
5274 4 -4.501 3.680 10.086 0.009 0.004 -0.006 -0.000
19686 4 7.190 9.544 0.844 0.005 0.008 -0.005 0.000
490 4 -3.160 7.605 2.788 0.011 0.006 0.006 0.000
2005 4 -2.146 -3.854 13.388 0.002 0.003 -0.006 -0.000
213 4 9.949 7.187 -1.727 0.004 0.001 0.002 0.000
1730 4 11.359 10.270 10.436 -0.009 -0.009 0.008 0.000
1729 4 -1.786 13.015 8.044 0.003 0.005 0.003 -0.000
2136 4 1.528 12.347 14.190 -0.001 0.007 0.008 0.000
18860 4 1.885 5.599 -2.727 -0.004 0.003 -0.006 0.000
13597 4 -2.385 2.875 11.690 -0.001 -0.010 0.008 -0.000
19805 4 -2.465 14.009 -3.665 -0.009 0.006 0.001 0.000
19823 4 13.922 12.683 -1.354 0.004 -0.011 -0.009 0.000
2164 4 -4.130 12.992 9.241 0.001 0.003 -0.007 0.000
970 4 13.399 14.338 0.692 0.006 -0.014 0.002 0.000
2858 4 5.589 1.434 20.424 -0.004 -0.003 0.001 -0.000
898 4 11.498 -1.008 9.124 -0.007 -0.003 -0.007 -0.000
6315 4 0.451 10.127 15.296 0.001 -0.012 -0.001 -0.000
3011 4 -3.799 12.049 21.113 -0.009 -0.008 -0.001 -0.000
9172 4 -2.123 10.149 2.487 -0.005 0.009 0.006 -0.000
19609 4 11.298 -5.023 -2.237 0.001 -0.004 0.009 0.000
9525 4 -2.467 2.562 8.962 0.005 -0.004 0.005 -0.000
579 4 9.864 13.935 -3.232 -0.007 0.009 0.001 -0.000
2650 4 -3.255 10.130 18.877 -0.001 0.005 0.001 -0.000
1726 4 -3.743 -2.605 20.458 0.004 0.001 -0.000 -0.000
19841 4 -5.054 14.300 3.597 -0.009 0.010 -0.001 -0.000
19778 4 14.138 -1.249 1.185 0.006 -0.002 -0.001 -0.000
2495 4 6.580 1.084 18.065 -0.009 0.018 0.014 -0.000
2575 4 12.622 9.892 13.722 0.006 -0.001 -0.006 -0.000
1264 4 13.512 -2.587 8.087 0.000 -0.002 0.001 -0.000
4195 4 -0.922 6.252 -1.205 0.003 0.012 -0.007 0.000
281 4 -2.971 12.596 3.450 0.003 0.012 -0.006 0.000
247 4 5.653 13.818 6.264 -0.004 -0.004 -0.002 -0.000
4599 4 -1.332 12.995 5.251 0.004 0.007 0.005 -0.000
2935 4 10.645 11.854 19.674 -0.002 -0.007 0.004 0.000
56 4 9.172 -2.297 -3.086 0.002 0.004 -0.000 0.000
282 4 0.516 10.321 3.951 0.004 0.002 -0.007 0.000
52 4 6.855 -3.382 -3.238 0.001 0.001 -0.009 -0.000
5634 4 -3.486 5.146 12.240 -0.008 -0.010 -0.001 -0.000
18042 4 -4.480 -2.157 -2.204 0.014 -0.001 0.007 0.000
2007 4 4.239 -4.238 9.547 -0.010 -0.002 0.002 -0.000
19329 4 3.386 3.117 -2.677 -0.000 -0.005 0.005 0.000
19282 4 -3.438 1.788 0.200 0.005 -0.001 0.005 -0.000
2178 4 10.949 9.410 20.220 0.003 0.010 -0.006 0.000
1297 4 14.877 1.263 13.946 0.002 0.009 0.002 0.000
1262 4 13.313 7.099 14.467 -0.004 -0.002 0.008 0.000
3085 4 7.488 11.936 16.996 0.006 -0.003 -0.002 -0.000
2542 4 14.593 8.807 19.863 0.003 0.003 -0.005 0.000
108 4 9.099 6.164 -3.723 -0.007 0.003 -0.001 -0.000
2058 4 12.053 6.993 16.505 0.000 -0.005 0.004 -0.000
2335 4 8.274 14.156 11.263 -0.002 0.006 0.005 -0.000
19688 4 -2.638 4.032 -4.060 -0.005 -0.000 -0.009 0.000
19729 4 7.958 12.896 -3.783 0.002 0.004 -0.004 -0.000
452 4 10.369 11.403 -3.050 -0.004 -0.001 0.001 0.000
3339 4 8.077 4.776 19.821 -0.010 -0.008 0.002 -0.000
1044 4 -3.410 11.488 0.600 0.000 0.000 0.017 0.000
6033 4 -2.453 3.703 20.691 0.008 0.004 0.005 -0.000
541 4 12.966 10.910 -3.172 0.001 0.004 -0.009 -0.000
404 4 -4.883 7.377 9.507 -0.011 -0.003 -0.007 -0.000
2940 4 12.782 -1.237 17.365 -0.003 0.006 -0.005 -0.000
4153 4 -4.750 9.794 3.305 0.009 -0.003 -0.000 0.000
6269 4 -3.115 14.021 17.047 0.011 0.004 0.003 0.000
2416 4 1.493 -4.234 10.420 0.002 0.002 0.003 -0.000
2566 4 -0.962 14.955 16.226 -0.010 0.010 0.011 0.000
2013 4 7.436 -3.000 16.336 0.009 -0.004 -0.009 0.000
6071 4 -2.930 -0.388 19.360 -0.010 0.002 -0.000 0.000
23678 4 0.074 12.279 -3.788 -0.001 0.007 0.009 0.000
19734 4 13.182 9.323 -0.647 -0.000 -0.009 0.005 0.000
8733 4 1.105 -1.890 1.122 -0.004 -0.003 -0.002 -0.000
10776 4 8.789 -2.704 20.399 -0.002 0.015 0.009 -0.000
2535 4 12.628 1.191 15.601 0.003 -0.005 -0.001 0.000
2889 4 12.591 2.062 21.064 0.008 0.012 0.008 0.000
2267 4 12.036 12.695 17.520 -0.000 0.007 0.006 0.000
2053 4 5.647 6.221 21.143 0.000 0.007 -0.009 -0.000
3244 4 1.333 8.748 20.596 -0.002 -0.004 0.001 0.000
19697 4 4.582 5.641 -2.030 0.002 0.011 0.004 0.000
81 4 -5.295 7.945 4.592 -0.007 -0.001 0.007 -0.000
19923 4 1.311 14.505 -2.871 0.005 -0.001 -0.004 -0.000
10334 4 -1.111 -3.662 15.843 -0.001 0.003 0.003 0.000
19702 4 11.422 -2.030 -2.045 -0.006 -0.010 -0.004 0.000
10379 4 13.705 -4.935 9.323 -0.004 -0.007 0.004 0.000
23439 4 -4.461 11.282 -1.702 0.002 -0.000 -0.006 -0.000
10332 4 1.485 -1.402 -3.695 0.008 -0.002 0.004 0.000
6673 4 -3.716 13.767 11.614 -0.001 0.001 -0.007 0.000
612 4 5.861 14.280 1.399 0.008 -0.005 -0.003 -0.000
19406 4 4.755 0.635 -1.679 0.006 -0.002 -0.002 -0.000
13556 4 -2.381 1.948 17.321 0.004 0.000 0.014 -0.000
616 4 0.381 13.656 0.438 0.008 -0.011 0.003 0.000
822 4 10.670 -2.709 2.916 -0.008 0.005 0.009 -0.000
19618 4 6.814 10.873 -2.562 -0.003 0.015 -0.003 0.000
2243 4 -4.709 4.987 14.250 0.013 -0.004 -0.002 0.000
2063 4 11.262 -2.672 21.653 0.006 0.014 0.001 -0.000
19806 4 8.184 8.422 -3.593 0.004 0.004 0.006 0.000
7276 4 -4.602 -4.488 13.725 0.005 0.001 0.002 0.000
19722 4 -0.657 5.403 -3.447 0.001 -0.015 -0.007 0.000
6476 4 -3.066 4.613 17.184 -0.003 -0.004 0.001 -0.000
3849 4 0.689 12.942 20.519 -0.011 -0.004 0.002 -0.000
1827 4 14.372 13.080 14.786 -0.008 -0.000 -0.008 -0.000
10778 4 8.921 -4.002 18.031 -0.010 0.009 0.007 0.000
4840 4 -3.429 12.153 6.168 -0.006 -0.004 0.005 -0.000
26775 4 12.849 -3.638 -3.469 0.011 0.004 -0.007 0.000
8368 4 4.537 -4.589 12.272 0.001 0.004 -0.005 -0.000
8374 4 3.868 -1.102 -4.419 0.006 -0.007 -0.006 -0.000
3892 4 2.638 12.634 18.404 -0.006 -0.004 0.004 0.000
2814 4 6.567 -4.409 18.346 -0.000 -0.001 -0.003 -0.000
1401 4 -4.877 5.600 3.059 -0.009 0.001 0.003 -0.000
2863 4 6.475 3.444 21.051 -0.010 0.010 -0.006 -0.000
3421 4 12.064 7.361 20.511 0.001 0.013 0.007 -0.000
2408 4 12.038 -0.543 20.459 0.004 0.004 -0.001 0.000
44 4 5.513 -5.108 -0.997 -0.006 -0.010 -0.003 -0.000
11581 4 14.488 -0.663 20.629 -0.003 0.004 0.003 0.000
6829 4 -4.789 -4.556 19.225 -0.000 0.002 0.007 0.000
173 4 12.672 13.033 6.076 -0.008 0.007 -0.003 0.000
19804 4 -4.283 13.470 0.467 -0.006 -0.005 -0.009 -0.000
19419 4 2.737 6.957 -4.575 -0.001 -0.005 0.004 -0.000
19336 4 10.567 9.201 -4.210 0.005 0.002 0.000 -0.000
1377 4 14.452 -1.224 5.645 -0.002 0.002 -0.006 0.000
9542 4 0.533 -4.479 13.076 0.006 -0.012 -0.001 -0.000
3456 4 11.338 13.969 15.965 0.015 0.002 -0.006 -0.000
2564 4 3.089 10.835 20.970 -0.001 0.009 -0.004 -0.000
3405 4 -1.051 10.617 19.844 0.004 0.012 0.007 -0.000
521 4 -4.681 6.338 0.830 -0.011 -0.005 -0.000 0.000
9561 4 -2.631 -3.878 -2.150 -0.003 0.002 -0.001 0.000
87 4 6.258 -0.226 -3.188 0.001 0.007 -0.003 -0.000
18962 4 -1.875 13.319 1.163 -0.004 -0.003 -0.006 -0.000
475 4 13.149 2.005 -2.360 -0.009 0.007 0.001 0.000
3013 4 12.450 11.366 21.699 0.001 0.007 -0.002 -0.000
59 4 12.868 6.921 1.266 -0.004 -0.004 0.004 0.000
22638 4 -3.090 13.392 -1.461 0.006 0.007 0.004 0.000
2181 4 13.538 3.230 18.642 -0.006 -0.004 -0.002 -0.000
6277 4 -5.411 12.566 6.957 0.003 0.006 -0.018 -0.000
928 4 -1.087 14.674 -1.424 0.009 0.002 0.003 -0.000
13199 4 2.169 -3.022 2.643 0.013 -0.004 0.000 0.000
1766 4 -3.758 6.369 19.366 0.004 -0.000 0.002 -0.000
6034 4 -1.707 7.578 20.597 -0.000 -0.007 -0.004 -0.000
973 4 14.292 3.146 7.496 -0.007 0.002 0.006 -0.000
1455 4 13.008 13.071 8.720 -0.001 0.005 0.005 -0.000
3693 4 10.213 1.604 20.500 0.005 -0.002 -0.003 -0.000
974 4 11.935 13.120 3.770 0.014 0.008 0.011 -0.000
134 4 -4.036 5.494 -2.290 0.002 -0.001 0.006 0.000
19608 4 -3.859 -3.196 0.010 0.002 -0.005 0.003 0.000
24 4 7.955 -3.445 2.440 0.008 -0.008 -0.015 0.000
10775 4 7.097 -4.372 11.597 -0.004 -0.008 -0.010 0.000
2973 4 12.014 12.276 12.320 0.005 -0.004 0.007 -0.000
2133 4 13.905 7.122 7.055 -0.007 -0.009 -0.005 0.000
1363 4 -5.202 3.136 5.329 -0.001 -0.011 -0.009 0.000
1674 4 13.883 -1.155 14.972 -0.003 -0.004 -0.002 -0.000
983 4 13.822 10.328 7.562 -0.011 0.009 0.009 -0.000
12396 4 -3.585 -0.899 7.793 -0.001 0.003 0.009 -0.000
6717 4 -5.055 8.626 18.550 -0.002 0.009 0.000 -0.000
3342 4 10.826 13.744 21.534 0.007 -0.002 -0.004 -0.000