ITEM: TIMESTEP
19000
ITEM: NUMBER OF ATOMS
32000
ITEM: BOX BOUNDS pp pp pp
-5.564938 76.044938
-4.806067 75.286067
-5.022938 75.502938
ITEM: ATOMS id type x y z vx vy vz q
174 4 8.719 8.157 6.786 -0.002 -0.013 -0.001 -0.000
406 4 10.916 3.945 -2.362 -0.002 -0.006 -0.004 0.000
488 4 8.845 11.889 14.396 -0.016 -0.013 -0.002 0.000
494 4 6.146 -3.035 4.221 0.002 -0.010 0.001 -0.000
529 4 2.700 8.554 10.610 -0.002 0.001 -0.005 0.000
531 4 -0.701 3.402 8.526 -0.003 0.005 -0.004 0.000
539 4 7.975 9.969 11.742 0.002 0.007 0.001 -0.000
571 4 7.503 -4.439 2.852 -0.007 0.006 0.013 -0.000
810 4 1.457 -0.184 12.116 0.004 0.003 0.001 0.000
847 4 5.348 6.956 0.755 0.012 0.006 -0.005 0.000
890 4 6.880 2.773 8.936 -0.001 0.007 0.004 0.000
891 4 9.152 12.923 5.294 0.005 0.003 -0.024 -0.000
892 4 6.386 -0.260 13.864 -0.004 0.006 0.005 -0.000
893 4 6.859 0.952 -3.525 0.005 0.005 -0.006 0.000
896 4 8.215 -1.763 14.363 -0.003 -0.006 0.003 -0.000
971 4 12.837 12.777 16.025 0.002 0.001 -0.001 0.000
1206 4 4.401 0.298 0.019 0.007 0.012 0.007 0.000
1208 4 11.351 -1.323 5.040 -0.005 -0.014 0.005 -0.000
1216 4 11.697 -3.661 9.697 -0.001 -0.007 0.000 0.000
1218 4 9.324 -0.077 3.645 -0.001 -0.010 0.007 -0.000
1248 4 7.902 -0.875 8.575 0.014 -0.004 -0.003 -0.000
1249 4 9.583 8.188 9.350 0.007 -0.006 -0.006 -0.000
1250 4 9.871 10.841 6.268 0.005 -0.000 -0.010 -0.000
1285 4 0.760 -0.069 6.532 -0.003 0.015 0.002 -0.000
1286 4 9.502 -2.587 4.910 -0.003 -0.006 0.003 0.000
1289 4 13.499 0.438 13.709 -0.002 -0.006 0.010 0.000
1292 4 -1.627 2.213 19.368 -0.014 -0.002 -0.005 -0.000
1295 4 6.353 1.201 2.002 -0.008 -0.014 0.000 -0.000
1329 4 8.273 7.578 12.768 -0.005 0.001 -0.012 -0.000
1330 4 11.285 9.520 8.091 -0.003 -0.019 -0.003 0.000
1331 4 9.825 4.226 16.808 0.001 -0.006 0.002 0.000
1335 4 -1.842 -1.002 16.686 -0.001 -0.005 -0.002 -0.000
1338 4 2.930 8.585 4.974 -0.012 0.002 -0.005 -0.000
1375 4 4.638 14.167 11.935 -0.001 -0.001 0.006 0.000
1610 4 -1.447 2.693 3.331 0.001 0.006 -0.010 -0.000
1644 4 4.101 3.946 10.512 -0.002 -0.014 0.008 0.000
1646 4 0.790 -0.652 9.666 0.014 0.007 -0.009 0.000
1650 4 3.186 -0.797 5.687 -0.006 0.002 0.002 -0.000
1651 4 -0.211 11.495 8.641 0.001 0.013 -0.002 0.000
1655 4 5.409 -0.220 6.285 0.005 0.014 0.008 0.000
1689 4 1.085 2.188 9.766 0.006 0.008 0.003 0.000
1690 4 5.372 4.453 4.855 -0.015 -0.007 0.001 0.000
1728 4 4.589 9.082 2.626 -0.004 -0.005 -0.006 0.000
1735 4 10.135 4.559 13.408 -0.004 0.002 0.001 -0.000
1767 4 1.016 8.169 12.970 0.016 -0.001 0.003 -0.000
2045 4 5.932 14.772 9.817 0.001 0.003 0.003 0.000
2051 4 14.056 8.391 13.510 0.002 -0.007 -0.005 0.000
2086 4 6.690 12.624 6.357 0.005 0.013 0.005 -0.000
2087 4 1.855 3.349 11.815 -0.004 0.002 0.006 0.000
2088 4 8.400 7.372 4.154 0.007 0.001 -0.004 0.000
2089 4 5.852 13.675 14.237 0.013 -0.010 -0.005 0.000
2092 4 10.382 8.718 11.684 -0.002 -0.012 -0.006 0.000
2125 4 3.034 12.400 14.860 0.005 -0.001 0.011 -0.000
2129 4 8.298 6.909 17.721 -0.004 0.002 0.000 0.000
2135 4 10.703 11.128 15.814 -0.007 -0.013 -0.005 0.000
2412 4 7.598 7.095 15.123 0.009 -0.015 -0.005 -0.000
2452 4 8.028 0.989 10.468 0.000 -0.001 0.004 -0.000
2493 4 9.492 10.988 19.570 -0.000 0.006 0.013 -0.000
2525 4 2.576 9.739 15.546 0.006 0.001 -0.006 -0.000
2528 4 4.648 3.778 18.175 -0.001 -0.009 0.002 0.000
2529 4 10.156 2.608 15.018 0.003 0.009 0.002 0.000
2532 4 11.696 6.809 10.058 -0.007 -0.005 -0.002 -0.000
2573 4 11.354 2.354 11.582 -0.001 -0.003 0.001 0.000
481 4 5.868 7.037 3.941 0.003 -0.003 0.000 -0.000
1609 4 9.304 -2.781 10.047 0.004 0.007 -0.005 -0.000
2454 4 4.176 6.765 12.020 0.001 -0.005 -0.001 -0.000
403 4 7.098 3.152 4.194 -0.006 0.002 0.003 0.000
2455 4 6.773 5.484 10.765 -0.001 0.004 0.000 0.000
163 4 7.634 5.354 8.650 -0.006 0.004 -0.006 0.000
1815 4 10.300 8.271 -0.103 -0.002 0.003 0.003 -0.000
2490 4 13.966 4.958 16.242 -0.003 -0.003 -0.003 0.000
2044 4 5.028 10.275 7.057 -0.007 -0.004 0.009 -0.000
8370 4 1.075 2.793 3.253 0.008 0.004 0.003 -0.000
2179 4 10.442 4.294 9.650 -0.004 -0.006 0.011 0.000
19 4 4.481 2.124 4.820 -0.002 -0.001 0.012 0.000
127 4 9.486 8.977 2.038 -0.001 -0.008 0.005 -0.000
2534 4 13.523 5.365 18.905 0.007 -0.003 0.006 -0.000
3332 4 9.670 -2.490 -1.328 0.002 -0.008 -0.007 0.000
1732 4 7.084 10.148 14.610 0.005 0.001 0.008 -0.000
964 4 1.944 4.563 8.696 -0.004 -0.007 0.005 0.000
19764 4 -3.371 14.894 6.485 -0.006 -0.002 -0.006 -0.000
1684 4 7.669 4.875 13.760 0.011 0.008 -0.005 -0.000
2816 4 2.378 3.610 14.906 -0.007 0.009 0.010 -0.000
851 4 6.840 1.520 16.360 0.001 0.013 0.001 0.000
8769 4 2.967 0.880 10.488 -0.000 -0.001 -0.000 0.000
2483 4 6.050 7.054 19.833 -0.005 0.002 0.001 -0.000
2603 4 8.673 0.254 15.514 -0.002 0.000 -0.012 -0.000
2965 4 5.299 3.012 20.809 -0.015 -0.005 -0.005 -0.000
1765 4 6.018 -2.633 13.688 -0.005 0.004 0.006 -0.000
3247 4 8.966 3.343 11.643 0.002 0.001 -0.006 0.000
809 4 12.548 0.776 3.939 0.000 -0.006 -0.007 -0.000
1727 4 -0.127 9.988 15.355 -0.001 0.006 0.004 -0.000
2420 4 6.911 -1.454 11.329 0.002 -0.004 -0.009 -0.000
10774 4 12.564 3.059 13.596 0.005 0.001 0.000 -0.000
841 4 1.915 0.404 3.115 -0.001 0.003 -0.004 -0.000
568 4 8.158 10.015 0.251 -0.010 0.003 0.008 -0.000
979 4 8.438 12.954 2.755 -0.002 -0.001 -0.008 0.000
9968 4 1.255 8.185 2.879 0.003 0.011 -0.002 0.000
444 4 1.495 2.402 7.166 -0.005 0.000 -0.002 0.000
1376 4 13.682 13.388 5.307 -0.009 0.014 0.008 0.000
1649 4 9.661 6.415 11.094 -0.003 0.001 -0.003 -0.000
610 4 4.588 12.388 9.946 -0.001 -0.001 0.004 0.000
19455 4 11.282 12.567 -3.269 -0.003 0.004 0.005 -0.000
27937 4 -2.891 1.462 1.592 0.002 -0.003 0.014 -0.000
852 4 -1.847 4.852 -1.954 -0.002 -0.002 -0.007 -0.000
572 4 9.748 6.079 2.057 -0.007 0.004 -0.013 0.000
19413 4 0.880 -3.059 8.200 -0.001 -0.004 0.003 0.000
1365 4 2.388 9.143 -2.250 0.001 -0.006 -0.011 0.000
6117 4 9.422 -2.116 12.464 -0.003 0.000 -0.008 -0.000
1696 4 7.558 4.773 16.005 0.002 -0.006 0.004 -0.000
1217 4 -0.188 0.953 1.687 0.005 0.004 0.007 -0.000
607 4 5.928 9.956 0.613 -0.002 0.008 0.012 -0.000
1725 4 11.658 4.873 11.688 -0.007 -0.000 -0.002 0.000
2130 4 11.781 8.325 14.612 -0.005 0.003 0.002 0.000
566 4 2.476 10.321 7.919 -0.004 -0.001 0.005 -0.000
1686 4 -1.665 12.062 15.187 0.000 0.001 -0.006 -0.000
9930 4 -1.387 8.528 6.405 -0.001 0.010 0.006 -0.000
4479 4 3.431 -1.349 13.649 0.010 0.001 -0.009 0.000
19325 4 7.788 -1.645 2.697 0.000 -0.001 0.001 -0.000
208 4 5.838 13.509 -2.952 0.001 -0.005 0.006 -0.000
2106 4 6.597 7.514 8.245 -0.009 -0.007 0.002 -0.000
9974 4 9.803 5.954 6.525 0.008 -0.004 0.003 0.000
9565 4 5.112 2.358 14.375 0.011 -0.003 0.006 -0.000
95 4 6.956 2.162 6.430 0.014 -0.001 -0.002 0.000
5758 4 3.664 6.377 5.016 0.009 0.001 -0.001 -0.000
19736 4 4.104 5.496 8.206 0.000 -0.012 0.003 0.000
2204 4 6.502 9.666 9.606 0.011 0.010 0.002 -0.000
2460 4 7.461 -4.148 11.438 -0.005 0.005 -0.013 -0.000
569 4 1.163 10.779 6.196 -0.005 0.001 -0.004 -0.000
1723 4 4.235 6.145 20.863 0.002 -0.009 0.006 0.000
19682 4 4.395 2.963 7.558 -0.002 0.001 -0.005 0.000
858 4 14.039 -1.497 15.254 0.006 0.001 -0.003 0.000
1251 4 10.627 -3.660 14.090 0.008 0.007 0.003 -0.000
7233 4 4.949 -0.729 16.590 0.001 0.009 -0.003 0.000
19771 4 -2.559 -2.109 8.530 -0.011 -0.003 0.006 0.000
55 4 -1.223 3.542 13.315 -0.005 0.013 -0.007 -0.000
533 4 4.872 11.206 4.754 -0.001 -0.003 -0.004 -0.000
2643 4 1.737 7.181 18.417 0.009 -0.008 0.000 -0.000
6480 4 3.230 1.554 12.896 -0.010 0.004 -0.004 0.000
1761 4 4.804 7.636 9.671 0.000 0.003 -0.001 -0.000
2163 4 7.676 8.910 19.384 -0.000 -0.003 -0.003 -0.000
456 4 6.792 3.767 0.445 0.002 0.003 0.004 0.000
1281 4 3.154 -2.145 8.191 -0.004 -0.010 -0.007 0.000
1653 4 2.796 4.005 5.355 -0.004 0.012 0.006 0.000
1135 4 8.429 6.986 0.055 -0.018 -0.003 -0.007 0.000
1282 4 4.059 8.118 7.226 0.002 -0.000 0.007 -0.000
19776 4 7.757 10.273 7.548 0.001 -0.002 0.006 -0.000
170 4 3.104 10.733 -0.571 -0.001 -0.000 0.004 0.000
2124 4 3.235 7.574 14.486 0.006 0.006 -0.004 -0.000
19408 4 0.093 5.700 1.783 -0.005 0.002 -0.004 -0.000
2084 4 6.668 0.238 4.449 0.012 -0.001 -0.010 0.000
19284 4 2.958 0.385 8.114 0.007 0.000 -0.003 0.000
565 4 6.527 12.709 1.244 0.004 -0.002 -0.010 0.000
90 4 4.253 -0.008 3.620 -0.006 -0.000 -0.007 -0.000
16218 4 7.158 3.261 18.211 0.004 -0.003 -0.004 0.000
2521 4 5.891 4.018 12.392 0.005 0.014 -0.002 -0.000
4598 4 7.701 2.179 13.969 0.006 0.009 -0.000 -0.000
3700 4 10.030 6.727 14.465 -0.005 0.012 -0.008 0.000
485 4 5.822 8.666 12.005 0.002 0.004 -0.013 -0.000
9165 4 -0.778 6.540 12.635 -0.003 0.004 0.004 -0.000
1322 4 7.487 13.653 16.299 -0.004 0.010 -0.005 -0.000
1688 4 -2.105 14.728 11.123 0.006 -0.004 0.008 0.000
9132 4 10.056 -1.190 7.872 0.008 0.005 0.006 0.000
2018 4 11.274 1.132 17.371 -0.003 0.003 -0.007 0.000
2166 4 8.970 13.127 18.310 -0.006 -0.004 0.007 0.000
9895 4 11.625 6.654 16.749 -0.001 -0.002 -0.003 -0.000
887 4 -2.173 5.492 3.268 -0.004 -0.003 -0.008 -0.000
8365 4 2.529 7.345 -4.198 0.002 -0.004 -0.007 0.000
19625 4 10.180 -2.305 1.330 -0.006 0.003 -0.007 0.000
6516 4 7.418 7.501 10.366 0.011 -0.008 -0.009 -0.000
2209 4 8.355 11.413 16.722 -0.007 0.005 0.008 0.000
19298 4 2.375 1.407 5.199 -0.001 -0.003 -0.001 0.000
846 4 3.251 -2.865 1.741 0.002 -0.003 -0.002 0.000
10328 4 8.191 -4.125 14.999 -0.013 -0.014 -0.001 -0.000
177 4 4.198 5.490 -4.346 -0.006 0.006 0.004 -0.000
86 4 0.429 5.848 7.427 0.002 0.007 -0.013 0.000
19654 4 11.250 12.354 4.469 -0.004 -0.003 -0.007 -0.000
6111 4 1.193 2.544 17.982 0.004 0.010 -0.005 -0.000
1406 4 10.368 7.999 18.885 0.003 0.002 -0.002 -0.000
19763 4 -0.427 -2.068 3.838 0.001 -0.007 0.002 -0.000
863 4 6.268 -3.259 15.956 0.008 -0.006 -0.002 0.000
16178 4 2.971 0.675 17.863 -0.010 0.001 -0.002 -0.000
5399 4 7.934 13.907 10.375 0.001 -0.006 0.004 0.000
6951 4 0.639 10.179 10.503 -0.010 -0.003 -0.001 -0.000
2531 4 5.362 4.798 14.838 -0.002 0.001 -0.007 -0.000
10780 4 9.465 5.082 20.025 -0.005 -0.010 0.001 -0.000
192 4 0.135 11.221 -3.324 0.005 -0.002 0.001 -0.000
614 4 4.360 13.087 -0.623 -0.004 -0.007 -0.003 0.000
8763 4 -3.395 0.022 14.778 0.021 0.009 0.006 0.000
9126 4 2.864 1.148 15.402 0.006 0.000 0.012 0.000
96 4 0.446 3.987 -0.397 0.004 0.004 0.001 -0.000
9168 4 -4.263 -3.528 10.398 -0.011 -0.009 -0.000 -0.000
5360 4 0.830 11.935 16.173 0.001 -0.008 -0.007 0.000
5439 4 6.727 9.124 5.163 -0.008 0.012 0.003 -0.000
19490 4 2.840 4.420 2.544 -0.005 -0.002 -0.002 0.000
12795 4 1.479 -2.640 5.728 0.003 -0.003 0.002 -0.000
940 4 6.623 12.281 8.789 -0.006 -0.002 -0.000 0.000
1731 4 1.225 5.845 3.867 0.004 -0.003 -0.004 -0.000
18603 4 5.069 3.487 2.225 0.002 0.003 -0.001 0.000
19324 4 11.293 11.453 -0.672 0.013 -0.006 -0.009 0.000
294 4 9.293 10.957 9.271 0.004 0.007 0.013 -0.000
1372 4 4.469 11.618 2.067 -0.001 0.004 0.001 0.000
2577 4 9.950 8.638 16.217 0.007 0.005 0.001 -0.000
900 4 9.104 0.449 12.831 -0.005 0.003 -0.008 -0.000
648 4 3.952 9.307 -4.486 0.001 0.004 -0.001 -0.000
9487 4 -1.084 7.717 4.351 -0.000 -0.003 -0.007 0.000
18934 4 8.785 11.544 -1.881 0.009 0.015 -0.009 -0.000
19289 4 -0.109 6.920 -1.123 0.001 -0.003 0.019 -0.000
2619 4 11.200 11.813 18.057 0.002 0.005 -0.000 0.000
691 4 12.605 10.619 3.245 0.001 0.001 0.008 -0.000
2185 4 11.091 0.790 14.159 -0.002 -0.007 -0.000 -0.000
613 4 1.659 14.123 -3.496 -0.002 0.004 -0.005 -0.000
2860 4 5.739 -2.462 9.118 -0.004 0.011 -0.008 -0.000
2524 4 1.940 10.735 17.829 -0.006 0.007 0.002 -0.000
6553 4 -2.465 12.170 9.763 0.005 -0.003 0.004 -0.000
1252 4 5.574 0.245 9.340 -0.002 -0.018 -0.002 0.000
2144 4 11.239 7.617 6.423 0.009 0.002 0.000 0.000
2021 4 8.667 -2.270 18.396 0.003 -0.003 -0.003 -0.000
802 4 0.718 -1.494 14.382 0.005 -0.013 -0.003 -0.000
19217 4 5.517 -1.674 0.798 0.002 -0.003 0.001 0.000
8348 4 11.876 -1.139 0.039 0.000 -0.003 -0.005 0.000
23638 4 -1.369 -4.271 4.698 0.004 0.005 0.000 -0.000
2563 4 0.091 8.676 17.433 0.010 0.008 0.007 0.000
9969 4 5.480 1.829 11.042 0.007 0.004 -0.005 0.000
491 4 4.261 3.029 -0.543 -0.011 0.003 0.004 0.000
449 4 -4.401 7.213 14.455 -0.004 -0.001 0.014 0.000
23720 4 0.293 13.968 0.284 0.001 0.005 -0.009 -0.000
19730 4 7.143 8.271 2.005 0.002 0.009 -0.009 -0.000
217 4 13.608 -2.371 10.482 -0.003 0.003 0.003 0.000
1409 4 5.957 5.769 17.481 -0.004 0.004 -0.001 -0.000
1367 4 4.660 9.561 13.878 -0.003 -0.003 0.003 -0.000
697 4 9.554 4.356 -0.394 0.010 0.007 0.001 -0.000
19304 4 9.230 -0.271 -2.875 0.003 -0.001 -0.006 0.000
8330 4 11.344 0.998 1.539 0.005 -0.001 -0.002 -0.000
3365 4 3.281 12.377 6.077 -0.000 -0.005 -0.000 0.000
23469 4 -2.069 7.795 1.999 0.003 0.019 0.001 -0.000
5274 4 -3.334 -2.985 17.459 -0.011 0.005 -0.003 0.000
19686 4 7.165 10.592 3.183 0.012 -0.003 -0.009 -0.000
490 4 1.895 12.176 1.818 -0.002 -0.004 0.003 0.000
213 4 5.318 5.013 -1.937 -0.008 0.001 -0.002 0.000
1730 4 12.695 10.800 13.362 -0.001 0.003 -0.012 0.000
1729 4 2.106 12.295 9.330 0.002 0.015 -0.005 0.000
2136 4 2.454 9.236 19.807 -0.003 0.003 0.003 -0.000
18860 4 -2.317 9.349 -4.008 0.008 0.006 -0.001 -0.000
13597 4 -1.091 -1.719 6.393 -0.001 -0.002 -0.000 -0.000
898 4 12.421 0.063 11.036 0.009 -0.005 -0.008 0.000
6315 4 5.070 9.717 16.530 -0.006 -0.004 -0.009 -0.000
9172 4 -3.585 10.454 0.607 -0.002 -0.001 -0.008 0.000
9525 4 -2.980 5.427 13.528 0.001 -0.000 -0.007 -0.000
2495 4 14.476 2.544 15.466 0.007 0.002 0.001 -0.000
4195 4 -3.941 8.412 -0.512 -0.009 0.001 -0.008 -0.000
56 4 8.265 -4.217 -2.188 0.009 -0.009 -0.001 0.000
5634 4 3.785 4.325 13.112 0.006 0.008 -0.004 0.000
18042 4 -3.300 -3.034 3.427 0.007 -0.001 0.000 0.000
19329 4 7.787 -1.972 -2.612 -0.008 -0.011 0.003 0.000
19282 4 1.634 -0.721 0.674 0.000 -0.008 0.006 -0.000
2178 4 14.062 9.894 15.386 0.006 -0.011 -0.005 -0.000
452 4 10.772 7.538 -3.868 -0.003 -0.007 -0.003 -0.000
1044 4 0.450 8.285 -3.314 0.009 0.005 -0.000 -0.000
6033 4 -3.541 5.712 16.151 -0.008 -0.000 0.008 0.000
2416 4 -0.542 0.444 14.032 -0.001 0.006 -0.006 -0.000
10776 4 13.065 -0.375 19.684 0.006 -0.003 0.014 -0.000
19702 4 11.972 -3.718 -0.093 -0.003 -0.006 0.002 0.000
19406 4 4.140 0.932 -2.448 0.001 -0.003 0.007 -0.000
13556 4 -3.525 1.398 18.134 0.003 0.002 -0.005 0.000
616 4 0.706 10.959 -0.152 0.004 -0.002 0.005 0.000
19618 4 11.239 13.632 0.925 0.000 0.003 -0.002 0.000
19806 4 6.427 8.235 -1.031 0.003 -0.007 -0.004 -0.000
6476 4 3.495 6.055 16.390 -0.002 0.006 0.005 -0.000
3892 4 4.807 14.288 16.328 -0.009 -0.005 0.014 0.000
9561 4 0.397 -2.940 1.433 0.005 0.011 0.015 -0.000
87 4 6.268 -0.855 -1.442 -0.000 0.002 -0.001 0.000
3693 4 9.936 -2.576 16.149 -0.007 -0.008 -0.001 0.000
2133 4 12.017 5.633 7.796 0.003 -0.007 0.001 -0.000
983 4 12.384 7.125 12.288 -0.001 -0.009 -0.004 -0.000
12396 4 2.212 7.092 8.586 -0.000 -0.002 0.007 -0.000
6717 4 -2.131 9.210 16.360 -0.000 -0.000 -0.005 0.000
85 4 -0.684 9.670 -1.246 -0.010 0.001 0.004 -0.000
2699 4 5.336 12.264 17.391 -0.009 0.001 0.004 -0.000
19215 4 2.811 -2.540 -4.036 0.005 0.001 -0.013 0.000
455 4 6.620 6.387 6.366 -0.007 0.004 -0.003 -0.000
1807 4 3.237 12.365 17.736 -0.008 0.000 -0.009 0.000
5471 4 -4.089 13.103 5.153 -0.007 0.001 -0.009 -0.000
9962 4 -3.855 -2.804 15.139 0.006 -0.008 -0.003 0.000
1734 4 0.720 0.610 19.726 0.011 0.014 0.006 -0.000
6 4 -4.511 8.642 1.964 0.002 0.002 -0.009 -0.000
1260 4 8.074 -1.949 0.110 0.007 0.007 -0.009 0.000
1380 4 6.396 1.571 -0.784 -0.004 0.003 -0.008 0.000
1819 4 11.829 0.716 6.554 0.007 -0.002 -0.014 -0.000
6913 4 0.426 2.464 15.705 0.003 -0.011 0.004 -0.000
543 4 7.721 3.680 -2.040 -0.011 0.001 0.007 0.000
41 4 -0.501 5.320 14.960 0.007 -0.003 -0.004 -0.000
1386 4 9.933 11.696 11.226 -0.004 0.002 -0.000 0.000
420 4 9.213 4.665 4.444 -0.002 -0.001 0.009 0.000
5315 4 1.252 5.108 17.161 0.009 0.005 -0.004 0.000
9933 4 -2.014 -1.906 14.166 0.004 0.008 0.000 0.000
4476 4 -2.156 -3.373 11.912 0.013 0.012 0.010 0.000
3293 4 -3.724 -3.018 19.731 0.020 0.006 0.006 -0.000
1363 4 2.112 7.170 0.066 0.006 0.002 0.004 0.000
4073 4 -3.069 2.671 -0.157 0.001 -0.002 0.001 0.000
19655 4 -3.045 -2.734 -1.140 -0.012 -0.000 -0.006 -0.000
4955 4 5.606 1.238 18.451 0.008 -0.003 0.011 0.000
2494 4 2.517 10.588 12.746 0.001 -0.005 -0.013 -0.000
2422 4 4.041 -4.092 16.770 -0.006 -0.003 -0.000 0.000
3253 4 12.005 3.309 16.939 -0.012 -0.007 0.008 -0.000
5039 4 -0.154 12.750 11.844 0.005 0.010 0.003 -0.000
122 4 0.784 7.662 5.923 0.009 0.008 0.006 0.000
2011 4 11.641 4.337 2.474 -0.003 0.005 0.001 -0.000
6877 4 -1.233 4.027 17.339 0.004 -0.000 -0.007 0.000
9973 4 12.357 -3.484 15.947 -0.013 0.000 0.005 -0.000
2481 4 -0.215 -1.920 18.849 0.009 -0.016 0.004 -0.000
489 4 -5.056 -2.287 13.051 -0.007 0.000 -0.001 0.000
860 4 11.279 -3.436 3.668 -0.003 0.003 0.002 0.000
2169 4 -0.633 5.339 19.289 0.006 0.001 -0.002 0.000
3089 4 -1.784 7.734 8.244 -0.003 0.005 0.011 0.000
27570 4 -2.370 -0.278 3.445 0.006 -0.002 0.000 0.000
19336 4 9.798 10.121 4.065 -0.003 -0.000 -0.006 0.000
848 4 -3.646 -0.613 12.307 -0.009 -0.001 -0.012 0.000
17854 4 8.418 0.352 -0.919 -0.004 0.008 -0.003 0.000
214 4 6.558 5.231 2.386 -0.003 -0.008 -0.003 0.000
19307 4 10.695 6.294 -1.608 0.004 -0.003 -0.005 0.000
4640 4 -3.233 11.822 3.036 0.004 -0.000 -0.002 0.000
1401 4 2.529 5.820 10.668 -0.013 0.008 0.002 0.000
44 4 5.860 -3.642 -2.175 0.001 0.004 0.007 -0.000
19419 4 -1.759 2.128 -3.247 0.000 -0.004 0.002 0.000
1010 4 2.662 9.334 1.253 0.002 0.010 -0.006 0.000
6239 4 0.534 9.119 8.004 -0.011 0.000 0.002 0.000
6119 4 1.083 5.284 12.836 0.006 -0.003 -0.000 -0.000
66 4 8.931 1.894 1.093 -0.009 0.003 -0.005 -0.000
2418 4 10.390 -0.553 18.880 -0.002 -0.006 0.005 0.000
3845 4 1.066 7.275 15.177 0.002 0.002 0.003 0.000
8390 4 13.691 -2.880 5.147 0.005 -0.004 0.003 -0.000
2485 4 4.670 8.128 18.085 -0.010 0.003 0.003 -0.000
7717 4 1.450 -3.021 20.523 0.000 0.004 -0.002 -0.000
970 4 13.233 11.565 1.067 0.008 0.003 0.007 0.000
2099 4 9.068 2.312 8.971 -0.000 -0.002 0.005 0.000
6992 4 2.037 6.975 20.674 0.002 0.006 -0.006 0.000
8762 4 -1.725 -1.032 10.739 0.005 -0.010 0.009 0.000
4874 4 -4.394 1.919 7.140 -0.003 -0.004 -0.003 0.000
1647 4 4.911 -0.372 11.826 -0.007 0.005 -0.008 -0.000
2446 4 -0.122 13.930 15.727 0.007 0.008 0.004 -0.000
1766 4 -1.172 6.735 17.183 0.008 0.011 -0.003 0.000
487 4 -0.346 -0.472 -0.831 0.001 0.004 0.008 -0.000
1611 4 0.531 0.267 16.453 -0.006 0.003 -0.002 -0.000
6953 4 -2.821 7.722 12.312 0.001 0.002 -0.004 -0.000
23835 4 -1.876 6.112 0.500 -0.003 -0.005 0.008 -0.000
2970 4 12.297 12.926 11.606 -0.010 -0.006 -0.004 0.000
2126 4 -3.756 2.902 12.067 -0.006 0.001 0.005 0.000
27962 4 2.479 2.129 1.165 0.005 -0.005 0.009 -0.000
6594 4 12.409 14.536 17.635 0.004 -0.013 0.009 0.000
8377 4 13.889 -1.257 3.651 -0.006 -0.009 0.014 -0.000
1379 4 9.901 9.615 13.824 -0.003 -0.009 0.007 0.000
19804 4 5.766 13.502 3.289 0.003 -0.002 -0.018 0.000
1290 4 -3.522 7.194 3.959 0.003 0.006 0.011 0.000
7474 4 -2.919 9.823 13.939 -0.000 -0.007 0.009 -0.000
4232 4 -0.812 10.030 1.869 -0.003 -0.012 -0.006 0.000
447 4 1.478 1.994 -1.530 -0.002 0.004 -0.007 -0.000
404 4 -2.008 12.047 6.747 -0.004 -0.002 0.005 -0.000
26775 4 9.838 -2.716 -3.791 0.004 -0.004 -0.007 0.000
6955 4 -4.325 -0.995 17.179 -0.007 0.007 -0.002 -0.000
460 4 10.425 2.020 -0.946 0.007 -0.001 0.007 -0.000
175 4 9.898 14.951 4.136 0.010 -0.002 0.004 0.000
18895 4 7.954 4.261 -4.978 -0.003 -0.003 0.003 0.000
23632 4 -0.095 4.539 10.860 -0.005 0.002 -0.001 0.000
5473 4 -2.699 10.345 8.220 -0.004 0.001 -0.001 -0.000
575 4 3.823 5.234 0.380 0.010 0.002 0.004 0.000
19689 4 -0.956 2.011 -0.716 -0.005 0.002 -0.001 -0.000
4031 4 -1.217 1.894 5.927 0.002 -0.006 -0.008 -0.000
18858 4 2.774 5.248 -1.789 -0.006 0.000 0.010 0.000
2891 4 13.296 12.791 19.549 -0.009 0.005 0.000 0.000
2053 4 10.089 2.089 19.709 0.006 0.003 0.020 0.000
3082 4 7.495 9.174 17.062 -0.004 0.006 0.003 -0.000
5276 4 -1.808 1.533 16.338 -0.002 -0.004 0.008 -0.000
2093 4 0.633 2.874 20.464 -0.005 -0.006 0.004 0.000
1369 4 1.117 14.081 7.686 -0.016 0.004 -0.003 0.000
3664 4 7.791 0.605 20.157 -0.000 0.007 -0.002 -0.000
8381 4 14.135 -0.849 -3.464 0.005 0.006 -0.004 0.000
2029 4 12.181 -1.591 17.583 0.001 0.001 0.001 -0.000
19385 4 12.975 13.883 -0.915 -0.007 0.002 0.013 0.000
19688 4 -5.337 5.895 -1.161 0.002 -0.013 -0.007 0.000
4157 4 -1.567 3.784 1.112 -0.000 -0.012 -0.004 -0.000
6625 4 -1.224 11.395 17.693 0.003 -0.012 -0.001 -0.000
458 4 12.549 5.938 0.975 0.000 0.005 -0.002 -0.000
2415 4 12.044 -1.951 13.060 0.002 0.001 0.000 -0.000
18947 4 12.530 13.350 3.117 0.000 0.004 -0.003 0.000
1220 4 14.460 5.805 13.940 -0.005 -0.001 -0.008 0.000
561 4 3.437 13.486 3.935 -0.007 -0.008 0.003 0.000
5753 4 -4.624 9.761 18.593 0.001 -0.001 -0.006 -0.000
281 4 2.192 11.096 4.070 -0.004 -0.001 0.003 0.000
1692 4 -1.938 7.553 -2.174 -0.001 0.003 -0.007 -0.000
3617 4 10.939 -3.080 20.174 -0.002 -0.009 0.004 0.000
9529 4 0.435 -2.230 11.926 -0.002 0.007 0.002 0.000
15188 4 -3.277 6.947 19.138 -0.004 -0.002 0.001 0.000
7519 4 -2.580 14.016 19.470 -0.003 0.005 0.005 0.000
895 4 8.886 -0.115 6.046 -0.009 -0.007 0.007 -0.000
3307 4 2.678 -1.246 16.254 -0.013 -0.004 -0.000 -0.000
2498 4 13.614 8.672 5.376 0.002 -0.002 -0.000 -0.000
18940 4 12.509 3.100 0.006 -0.009 0.005 -0.005 -0.000
10379 4 6.971 -2.231 6.705 -0.007 -0.001 -0.007 -0.000
11929 4 2.455 -1.332 19.439 0.002 0.000 -0.006 0.000
8644 4 3.500 6.429 2.586 0.011 -0.001 0.004 0.000
901 4 10.566 11.029 1.823 0.012 -0.005 -0.008 -0.000
9128 4 -1.135 -3.678 20.757 0.002 0.018 0.001 0.000
526 4 -1.319 12.918 4.317 -0.006 0.006 -0.007 -0.000
2042 4 5.113 -4.416 7.210 0.007 0.013 -0.004 0.000
579 4 8.961 8.176 -2.310 0.001 -0.000 0.000 -0.000
2892 4 5.369 9.664 19.545 0.006 0.007 0.002 0.000
5475 4 3.516 11.748 -2.740 0.004 -0.004 0.013 -0.000
5232 4 -4.467 5.293 7.295 0.003 0.003 -0.005 0.000
13588 4 -4.613 5.907 10.968 0.006 0.008 0.003 -0.000
18442 4 -0.546 1.015 11.269 0.000 0.003 0.004 0.000
8049 4 7.118 13.461 -1.028 -0.006 0.001 0.010 0.000
19527 4 -0.891 13.601 -4.093 0.000 -0.001 -0.007 -0.000
405 4 -2.380 10.039 11.061 -0.000 -0.005 0.000 -0.000
206 4 12.698 11.170 9.352 0.005 -0.004 0.002 0.000
1412 4 9.138 13.189 7.827 -0.010 -0.004 -0.003 0.000
136 4 9.105 12.646 0.397 -0.007 0.000 -0.004 -0.000
2896 4 5.978 11.715 11.751 0.004 0.002 0.002 0.000
2609 4 -2.535 11.584 19.418 0.002 0.010 -0.007 0.000
19761 4 -2.220 14.741 -2.726 -0.001 -0.006 0.005 0.000
11180 4 13.440 2.249 18.892 0.000 0.010 0.001 0.000
3048 4 -0.201 10.246 12.668 -0.009 0.002 -0.003 -0.000
504 4 10.020 -0.136 10.216 0.002 0.003 0.006 -0.000
1721 4 -2.065 -0.432 19.421 -0.001 0.002 0.009 -0.000
129 4 0.017 4.224 5.077 -0.008 -0.001 0.013 -0.000
3029 4 12.189 9.110 17.015 -0.007 -0.003 -0.003 0.000
442 4 14.191 -1.845 -0.779 -0.007 -0.010 0.005 0.000
2859 4 6.616 -1.534 19.531 -0.009 0.009 -0.012 0.000
1693 4 3.349 14.030 8.846 0.004 0.001 -0.005 0.000
2650 4 -2.872 14.186 16.553 0.001 -0.000 -0.005 0.000
3410 4 2.282 11.658 20.410 0.010 -0.008 -0.003 -0.000
2506 4 14.758 -2.298 13.023 0.014 -0.006 -0.000 0.000
19212 4 -3.101 0.550 -1.941 -0.006 0.010 -0.001 0.000
498 4 5.899 11.103 -1.878 -0.015 0.006 0.004 0.000
81 4 -3.159 11.990 12.957 0.003 -0.005 0.011 -0.000
9164 4 -3.132 9.499 3.479 -0.013 0.014 0.002 -0.000
2210 4 7.383 11.534 19.542 0.004 -0.003 -0.017 0.000
191 4 14.039 1.752 0.961 0.006 -0.005 0.003 -0.000
1053 4 5.159 13.831 7.716 -0.003 0.004 0.002 0.000
4995 4 -2.039 2.779 10.313 -0.010 -0.002 0.002 0.000
10778 4 13.443 -2.877 19.955 0.002 -0.009 0.001 -0.000
5036 4 4.491 7.627 -2.075 -0.003 0.000 -0.011 0.000
23399 4 -1.633 5.907 5.921 -0.002 -0.004 -0.004 -0.000
13 4 -0.287 -2.961 -2.649 -0.011 -0.008 0.002 -0.000
1413 4 13.438 9.026 10.572 -0.006 0.009 0.014 0.000
1092 4 2.343 14.850 13.123 0.002 0.002 -0.003 0.000
6034 4 -0.002 10.394 19.793 0.000 -0.014 -0.005 0.000
19738 4 4.732 -3.902 -4.792 0.005 0.011 -0.003 -0.000
521 4 -0.929 10.433 4.640 0.002 0.007 0.004 0.000
10374 4 2.905 -2.081 10.903 0.009 0.004 -0.000 0.000
3260 4 10.558 3.204 21.745 -0.006 0.002 0.003 -0.000
1336 4 13.869 -0.529 6.396 0.000 0.001 -0.000 -0.000
5080 4 -1.421 12.246 1.185 0.004 -0.000 0.002 0.000
3405 4 0.840 13.059 18.782 0.004 0.003 -0.000 -0.000
2578 4 10.783 12.962 20.551 0.004 -0.006 -0.002 0.000
62 4 9.987 10.019 -3.508 0.003 0.008 -0.008 -0.000
2085 4 -2.235 5.229 9.487 0.001 0.002 0.001 0.000
27886 4 1.533 -2.545 -1.189 -0.003 -0.002 -0.003 0.000
19647 4 12.155 1.561 -2.966 -0.003 0.008 -0.003 0.000
4517 4 -3.702 1.242 4.246 0.005 -0.005 -0.001 -0.000
3045 4 -5.470 8.947 12.942 0.004 -0.003 -0.008 -0.000
6997 4 0.927 13.369 5.053 -0.015 0.005 -0.014 0.000
19773 4 0.891 3.123 -3.330 -0.005 -0.014 0.004 -0.000
3250 4 12.934 7.493 19.551 0.002 -0.009 -0.011 0.000
19711 4 12.003 5.326 5.076 -0.000 0.007 0.009 0.000
135 4 11.915 -1.386 -2.611 -0.004 -0.010 0.013 0.000
1705 4 12.700 6.620 -3.389 -0.013 -0.004 -0.003 -0.000
5393 4 -3.572 10.602 5.445 -0.002 0.003 -0.003 -0.000
689 4 -1.711 13.183 -1.253 -0.006 0.002 0.000 0.000
2497 4 12.181 5.132 14.757 0.005 0.006 -0.012 -0.000
3132 4 -0.477 8.077 20.472 -0.005 -0.010 0.008 0.000
5395 4 -4.692 10.325 15.265 -0.001 -0.006 0.007 0.000
815 4 12.635 -2.052 7.749 0.001 -0.000 -0.010 0.000
1361 4 2.193 13.017 -0.871 -0.005 -0.017 -0.010 0.000
925 4 -5.224 5.678 4.796 0.001 -0.008 0.001 0.000
216 4 13.743 9.842 7.539 -0.000 0.004 0.003 -0.000
24 4 13.971 -3.149 1.824 -0.003 0.001 -0.006 0.000
176 4 13.224 3.323 -4.404 -0.009 0.002 0.001 -0.000
58 4 13.474 -0.536 1.472 0.005 0.008 -0.002 -0.000
923 4 -4.387 12.953 15.179 -0.001 0.002 0.001 -0.000
2010 4 10.618 14.529 6.599 0.001 -0.004 0.005 0.000
823 4 11.644 12.115 7.289 -0.008 -0.007 -0.004 -0.000
18530 4 5.459 3.081 -3.565 -0.007 0.010 -0.011 -0.000
8733 4 1.664 -3.999 3.437 -0.003 -0.002 0.008 0.000
2061 4 11.764 1.799 9.000 -0.003 0.009 0.014 0.000
6109 4 -2.033 9.077 18.889 0.007 0.004 -0.002 -0.000
8761 4 -3.029 3.798 5.297 0.008 0.002 0.007 -0.000
5077 4 -4.403 12.156 7.714 0.002 0.007 0.003 -0.000
19722 4 -3.591 3.414 2.770 0.015 0.000 -0.001 0.000
2453 4 9.222 -1.418 20.697 0.007 -0.000 0.005 0.000
3100 4 4.443 12.834 19.849 0.004 0.004 0.006 -0.000
9542 4 2.091 -3.504 13.109 -0.007 0.001 0.004 0.000
4480 4 -3.849 8.139 6.156 0.012 0.005 -0.001 -0.000
169 4 13.627 3.556 8.699 0.007 0.003 -0.000 -0.000
3 4 -4.503 -0.375 20.027 -0.003 0.007 -0.005 -0.000
9124 4 -0.929 0.934 8.698 0.009 0.005 0.004 0.000
1603 4 -1.106 -3.672 16.350 -0.004 -0.003 0.009 -0.000
282 4 3.192 3.182 -3.037 -0.016 0.002 0.003 -0.000
1016 4 13.531 13.671 9.028 0.004 -0.014 0.008 0.000
1293 4 3.337 1.845 19.784 -0.005 0.011 -0.005 0.000
5875 4 -4.678 14.096 2.822 0.005 -0.003 0.003 0.000
8681 4 -2.871 -0.704 0.429 0.001 0.003 0.006 0.000
894 4 11.401 -3.565 6.121 0.007 -0.001 0.013 0.000
5040 4 -3.875 13.137 0.575 0.000 0.005 -0.011 0.000
19405 4 -4.328 5.890 1.459 -0.007 -0.003 -0.005 0.000
2028 4 13.350 -3.461 -2.377 0.009 0.007 0.004 -0.000
2267 4 8.447 7.097 21.684 -0.005 -0.008 0.002 0.000
171 4 0.411 5.429 -3.274 0.007 0.006 0.004 -0.000
6277 4 -3.971 14.248 9.762 0.004 0.006 0.001 0.000
6559 4 1.929 14.566 20.729 -0.005 -0.004 0.005 -0.000
8374 4 1.687 -0.485 -2.920 0.007 -0.005 0.016 -0.000
2243 4 -2.402 3.538 15.255 0.003 0.006 0.001 -0.000
19729 4 6.554 6.908 -3.298 -0.004 -0.003 -0.003 0.000
150 4 10.854 7.861 3.907 0.003 0.007 0.002 0.000
18973 4 6.009 9.076 -3.702 0.001 0.005 -0.003 -0.000
30 4 12.436 3.428 6.733 -0.006 0.003 0.002 0.000
1695 4 14.047 6.219 9.276 0.002 0.004 0.000 -0.000
5715 4 -1.609 7.432 14.790 0.005 -0.003 0.006 0.000
8366 4 -2.612 -3.293 1.187 0.002 0.009 -0.003 -0.000
2221 4 11.061 9.729 21.076 -0.003 0.002 -0.014 0.000
18978 4 9.612 5.429 -3.829 -0.005 -0.002 -0.004 0.000
1287 4 8.944 14.160 13.058 -0.009 -0.002 0.008 0.000
203 4 2.892 15.101 6.469 -0.005 0.001 -0.008 0.000
19785 4 12.865 9.767 -2.410 0.000 0.001 -0.009 0.000
6032 4 -3.981 4.066 18.070 -0.003 0.005 0.008 0.000
5000 4 -5.328 -0.539 -2.719 0.005 -0.003 0.002 0.000
4829 4 -4.888 -1.444 5.714 0.006 0.002 0.016 0.000
27979 4 3.865 -1.857 -1.737 -0.006 0.000 -0.011 0.000
3339 4 11.414 0.038 21.201 0.002 -0.018 -0.003 0.000
201 4 -4.054 11.643 -2.008 0.003 0.001 0.009 0.000
1002 4 -4.861 14.399 -1.650 0.000 -0.007 0.011 0.000
1243 4 4.639 0.131 20.483 0.002 0.006 -0.009 -0.000
59 4 11.884 10.316 5.868 -0.002 -0.002 0.009 -0.000
7159 4 6.479 13.942 18.630 0.005 0.003 -0.012 0.000
6036 4 5.210 -3.339 19.099 0.001 -0.012 -0.003 -0.000
811 4 -2.935 -0.257 7.160 -0.003 0.003 -0.011 -0.000
3381 4 8.269 3.006 21.286 -0.002 0.003 -0.007 0.000
10775 4 13.987 2.088 11.089 -0.010 -0.006 0.000 -0.000
19608 4 -0.663 -4.092 9.824 -0.010 0.002 0.005 0.000
1300 4 8.097 13.943 21.116 0.001 -0.003 0.006 0.000
9970 4 1.444 -3.563 15.758 0.002 0.004 0.003 -0.000
13199 4 7.656 -4.616 6.080 0.003 -0.001 0.001 -0.000
12393 4 -3.212 0.864 9.843 0.003 0.006 -0.006 0.000
10684 4 -5.240 -2.727 8.069 -0.002 0.001 -0.005 -0.000
31999 4 -5.047 -2.303 1.722 0.014 -0.004 -0.002 -0.000
3421 4 12.771 9.732 19.455 -0.008 -0.001 0.004 -0.000
18903 4 14.066 12.967 -3.076 0.004 -0.004 -0.007 0.000
2847 4 6.652 5.419 21.627 0.013 -0.002 0.003 -0.000
6159 4 -3.321 3.189 20.991 -0.000 0.006 0.004 0.000
2176 4 -3.620 8.850 21.012 -0.011 0.003 0.007 -0.000
18968 4 -3.927 5.396 -3.291 0.007 0.000 0.006 -0.000
641 4 -3.810 3.027 -4.475 0.009 -0.002 -0.006 -0.000
27950 4 13.803 3.190 -1.926 0.003 -0.002 -0.005 -0.000
6589 4 -0.506 14.276 20.854 0.010 -0.005 -0.003 0.000
527 4 -3.639 0.329 -4.480 -0.004 0.001 0.006 0.000
6552 4 -5.024 11.888 10.565 -0.010 -0.003 0.007 -0.000
8282 4 -5.468 2.032 -1.884 -0.009 0.001 0.000 0.000
1784 4 10.499 14.197 10.174 -0.008 0.009 -0.008 -0.000
11098 4 4.767 -3.023 11.973 0.005 -0.003 -0.004 -0.000
28 4 13.205 7.695 2.980 0.001 0.009 -0.013 -0.000
6560 4 -4.120 12.230 17.476 0.004 0.003 0.010 -0.000
412 4 -4.983 -0.098 0.023 0.002 -0.007 -0.004 0.000
11494 4 2.018 -3.307 18.129 0.010 0.002 0.010 -0.000
19335 4 14.727 13.951 1.002 0.007 0.005 0.004 0.000
5677 4 -4.880 9.348 10.339 0.004 0.006 0.007 -0.000
2164 4 -4.820 14.298 12.274 0.000 0.002 0.003 0.000
2052 4 13.584 0.765 -1.097 -0.007 0.006 -0.001 -0.000
8766 4 -4.769 -4.636 1.542 0.001 0.002 0.001 0.000
3345 4 13.578 2.629 21.343 0.002 0.003 0.009 0.000