ITEM: TIMESTEP
56000
ITEM: NUMBER OF ATOMS
32000
ITEM: BOX BOUNDS pp pp pp
-5.796988 76.276988
-3.655026 74.135026
-6.000545 76.480545
ITEM: ATOMS id type x y z vx vy vz q
2528 4 3.090 10.251 15.419 0.004 -0.005 -0.008 0.000
19217 4 -2.965 5.745 6.905 0.006 -0.003 0.005 0.000
23469 4 -0.948 8.535 -1.737 -0.001 0.009 0.010 -0.000
490 4 -3.995 13.219 6.887 -0.006 0.003 -0.001 -0.000
19282 4 11.212 7.250 -3.770 0.003 -0.009 0.001 -0.000
3307 4 -0.089 0.367 10.060 -0.002 -0.007 0.000 0.000
3365 4 2.514 0.656 5.066 -0.006 -0.003 0.000 -0.000
6029 4 -1.307 1.634 12.478 0.002 -0.009 -0.003 0.000
614 4 6.293 11.993 3.238 0.005 -0.005 0.004 -0.000
201 4 10.007 1.027 2.884 0.004 0.012 0.004 -0.000
1777 4 7.125 6.613 10.932 -0.010 -0.003 0.002 0.000
217 4 -2.102 13.121 16.298 0.009 0.003 0.006 0.000
173 4 2.395 9.638 1.066 -0.004 0.008 0.016 0.000
539 4 6.336 4.742 -1.554 0.007 0.002 -0.001 0.000
3830 4 5.594 10.796 15.218 0.002 0.004 -0.002 0.000
16513 4 -3.590 8.094 0.081 -0.001 0.007 0.003 0.000
6154 4 0.883 2.558 4.837 0.009 0.001 0.005 0.000
6673 4 10.671 9.731 13.412 -0.012 -0.007 -0.007 0.000
178 4 4.026 3.682 8.149 -0.001 0.010 0.004 0.000
5267 4 6.899 12.754 16.553 -0.006 0.002 0.009 0.000
27566 4 9.153 11.866 1.678 0.001 0.002 0.011 0.000
18496 4 0.078 10.696 2.767 -0.008 -0.007 -0.001 0.000
3246 4 0.833 6.423 16.038 0.010 0.008 -0.009 0.000
1643 4 5.652 2.175 -0.893 0.007 -0.004 -0.005 0.000
19244 4 12.129 4.009 5.992 0.001 0.012 -0.001 -0.000
1276 4 7.429 10.640 0.726 -0.003 -0.013 0.004 -0.000
2857 4 0.562 7.646 9.695 -0.002 -0.002 0.001 0.000
2516 4 -3.841 13.528 11.253 0.008 -0.010 0.000 0.000
11147 4 9.262 4.849 16.729 -0.007 0.005 0.008 -0.000
150 4 8.952 6.391 5.800 0.002 -0.001 -0.003 -0.000
10322 4 6.013 1.429 18.102 -0.010 -0.001 -0.005 -0.000
7787 4 9.011 5.145 -1.005 0.007 0.005 -0.002 -0.000
18858 4 4.204 12.952 13.646 -0.008 0.002 0.002 -0.000
5709 4 11.648 4.324 1.838 0.011 0.004 0.006 -0.000
27522 4 -4.103 3.211 17.870 -0.002 0.014 0.005 -0.000
2524 4 -2.536 1.631 9.047 -0.008 0.011 0.010 0.000
1291 4 6.955 2.593 8.775 -0.000 -0.001 -0.006 0.000
9685 4 7.901 -1.426 1.393 0.005 0.007 0.005 -0.000
810 4 11.099 3.356 10.236 0.002 0.001 -0.004 -0.000
41 4 4.663 7.432 3.108 0.003 0.005 0.001 0.000
27130 4 11.011 7.381 1.342 -0.002 -0.012 -0.002 -0.000
19737 4 8.249 14.625 3.050 0.002 0.003 -0.002 0.000
13075 4 1.299 -2.159 1.877 0.003 -0.007 0.001 0.000
14716 4 5.575 -0.383 1.052 -0.009 0.002 -0.009 -0.000
10657 4 7.307 13.090 19.104 0.001 0.001 0.000 0.000
22878 4 3.172 10.267 -4.098 0.005 -0.001 -0.000 -0.000
5357 4 6.519 2.323 -5.665 -0.001 0.005 -0.006 -0.000
2412 4 2.507 1.437 15.416 -0.004 0.006 0.008 -0.000
9924 4 3.865 10.212 -1.237 -0.001 -0.007 -0.002 0.000
163 4 3.420 4.226 -1.337 0.004 0.004 -0.004 0.000
27247 4 3.178 6.723 -0.590 -0.005 0.009 0.005 0.000
26705 4 4.894 0.552 3.608 0.000 0.010 -0.007 -0.000
13180 4 0.867 4.001 2.917 0.000 -0.002 -0.002 0.000
13143 4 -0.837 9.985 21.582 -0.003 0.002 0.014 0.000
27574 4 -0.844 -2.205 2.727 -0.003 -0.003 -0.001 -0.000
14351 4 -4.429 12.120 17.869 0.001 -0.010 0.005 0.000
11552 4 3.017 3.325 4.618 0.002 -0.004 -0.005 0.000
9583 4 7.471 1.336 1.561 -0.006 0.005 -0.008 0.000
528 4 12.025 5.817 10.679 -0.002 0.000 0.005 -0.000
5315 4 5.734 5.172 20.271 -0.002 -0.003 0.008 0.000
5335 4 3.173 8.260 11.112 -0.006 0.006 0.002 0.000
16209 4 5.880 4.457 10.130 -0.002 -0.014 -0.003 0.000
18523 4 3.885 2.903 1.882 -0.008 -0.009 0.012 0.000
2046 4 0.472 3.740 12.434 0.001 0.004 -0.001 0.000
5227 4 2.174 7.662 13.880 0.007 0.008 0.003 -0.000
20478 4 3.795 0.097 17.315 -0.001 0.002 -0.003 -0.000
4091 4 1.921 4.097 6.758 -0.007 0.007 -0.003 0.000
3203 4 9.652 13.109 16.616 0.007 0.001 -0.004 0.000
5221 4 -0.121 4.394 14.968 -0.007 0.007 -0.009 -0.000
23506 4 2.537 13.721 8.557 0.003 -0.005 0.001 -0.000
2133 4 13.276 2.283 -5.675 0.002 -0.008 0.002 -0.000
5676 4 -1.131 7.565 7.644 -0.003 0.003 0.001 0.000
14359 4 -0.521 5.327 11.331 0.002 0.015 0.001 0.000
2563 4 3.889 1.064 12.932 -0.001 -0.003 0.001 -0.000
10727 4 2.482 0.597 10.774 -0.002 -0.010 0.004 -0.000
16004 4 12.542 0.778 13.102 0.003 -0.005 0.001 0.000
203 4 6.479 9.368 2.560 0.007 0.005 -0.004 0.000
16764 4 2.752 12.520 6.426 0.003 -0.002 0.002 -0.000
6067 4 5.991 5.732 1.614 -0.002 0.007 0.012 0.000
11168 4 7.887 6.631 7.930 -0.018 -0.002 0.018 -0.000
3616 4 -0.672 6.754 13.917 -0.001 -0.003 -0.003 -0.000
4547 4 -2.552 11.409 6.640 -0.003 0.008 0.004 -0.000
9402 4 6.926 3.563 0.978 0.012 -0.012 0.007 -0.000
19307 4 9.845 2.940 1.235 0.001 0.003 0.008 -0.000
2407 4 3.980 6.858 20.206 -0.011 -0.006 0.007 0.000
875 4 6.083 6.905 -2.725 -0.004 -0.001 -0.001 -0.000
22957 4 -3.531 9.711 2.193 -0.003 -0.005 -0.003 0.000
7303 4 1.701 6.231 11.582 0.001 -0.002 -0.008 0.000
6480 4 1.330 3.437 -2.294 0.006 -0.008 -0.012 0.000
8784 4 5.662 11.253 -3.889 -0.009 -0.002 0.003 -0.000
9058 4 4.928 8.282 0.405 0.014 -0.004 0.003 0.000
2414 4 10.895 9.754 5.787 -0.000 0.006 0.010 0.000
20227 4 6.794 4.099 18.483 -0.002 -0.002 -0.005 0.000
206 4 2.922 6.249 8.943 0.003 0.005 0.008 0.000
19643 4 -2.341 3.879 13.618 -0.007 -0.006 0.006 0.000
12396 4 -1.300 5.050 8.143 0.005 0.005 0.003 0.000
9568 4 3.338 -3.021 7.358 0.005 0.002 -0.008 0.000
10361 4 7.745 0.721 7.075 0.009 -0.002 0.002 -0.000
4555 4 2.941 3.813 10.523 0.003 0.013 -0.007 0.000
6477 4 -0.369 4.488 18.014 0.008 0.005 0.002 0.000
2215 4 0.034 -0.385 4.113 0.003 0.000 0.003 0.000
1135 4 6.417 1.482 -3.177 -0.004 0.001 -0.002 -0.000
5834 4 4.335 8.520 14.910 0.004 -0.007 0.013 0.000
19814 4 10.987 13.880 2.963 0.007 0.005 -0.004 -0.000
5686 4 8.542 10.468 14.351 -0.001 -0.001 0.002 0.000
2164 4 1.483 5.975 20.608 -0.003 -0.016 0.005 -0.000
5789 4 9.717 2.489 15.354 -0.006 0.001 0.001 -0.000
27068 4 -0.313 -0.598 7.854 -0.012 0.010 -0.001 0.000
17239 4 7.281 7.133 -0.318 0.001 0.001 -0.009 0.000
2493 4 7.668 3.795 12.289 -0.005 -0.003 0.004 -0.000
3284 4 13.024 -0.164 18.210 0.006 -0.002 -0.012 -0.000
1646 4 5.697 9.579 9.786 0.005 -0.001 0.002 -0.000
5755 4 10.795 3.249 -1.019 0.006 0.004 0.005 -0.000
8725 4 5.395 3.571 12.814 -0.005 -0.002 -0.004 0.000
16140 4 -1.403 11.492 10.967 0.000 0.006 0.007 0.000
4477 4 3.811 12.307 3.352 0.005 -0.004 -0.008 -0.000
7272 4 6.533 13.715 -3.202 -0.005 0.006 0.005 -0.000
19662 4 2.608 1.609 -0.528 -0.000 -0.004 -0.005 0.000
3739 4 -1.866 0.319 16.430 0.004 -0.004 -0.003 -0.000
8370 4 1.265 8.345 4.008 -0.012 0.002 -0.010 0.000
769 4 8.805 10.697 -1.147 -0.006 -0.005 0.009 -0.000
3685 4 8.281 6.966 14.976 -0.001 -0.003 0.009 0.000
3375 4 -0.465 -0.626 18.814 0.007 -0.002 0.007 0.000
1098 4 2.218 3.481 14.139 -0.010 -0.000 0.007 -0.000
13588 4 2.956 12.410 0.410 0.006 0.003 -0.003 0.000
5721 4 6.418 2.687 3.788 -0.010 0.005 0.011 -0.000
31474 4 3.061 -0.376 1.890 -0.006 -0.009 -0.011 -0.000
3064 4 10.645 9.858 0.582 -0.003 -0.013 0.005 0.000
2678 4 1.636 10.033 13.127 -0.000 0.012 -0.002 0.000
1096 4 10.126 2.520 7.305 -0.004 0.006 -0.009 -0.000
10763 4 -4.796 -2.650 -0.534 0.018 -0.010 -0.005 0.000
18820 4 6.978 0.085 -0.738 -0.009 0.009 0.010 -0.000
23630 4 3.734 9.694 3.419 0.006 -0.001 -0.004 0.000
4235 4 11.010 2.137 -3.074 0.003 0.002 -0.006 -0.000
13472 4 12.079 6.038 -0.422 0.005 0.003 0.000 -0.000
4995 4 8.038 8.626 5.907 -0.004 0.013 0.001 -0.000
7151 4 5.416 3.394 5.909 0.000 0.001 0.009 0.000
7239 4 5.652 8.591 12.559 0.000 -0.004 0.008 0.000
23626 4 8.214 2.357 -1.204 0.003 0.002 -0.001 -0.000
5065 4 1.704 7.815 18.947 0.001 0.006 -0.000 0.000
1900 4 12.499 13.667 -0.520 -0.001 -0.011 0.000 0.000
575 4 8.310 13.834 -1.151 0.003 -0.007 0.011 0.000
5959 4 3.361 7.971 5.597 -0.003 -0.000 0.000 0.000
1293 4 0.163 11.135 -2.546 0.007 -0.010 -0.004 -0.000
1692 4 0.245 8.849 -4.096 0.013 0.001 0.005 0.000
5023 4 5.466 14.678 15.383 0.009 -0.002 -0.006 -0.000
11506 4 2.569 6.308 17.838 -0.000 -0.004 0.006 -0.000
22747 4 4.495 3.128 15.762 0.009 0.007 0.006 -0.000
852 4 4.423 5.251 3.774 0.012 0.004 0.009 0.000
9564 4 3.769 9.280 8.477 0.007 0.008 0.005 -0.000
5874 4 6.649 4.544 15.827 0.001 -0.012 0.005 0.000
2977 4 7.606 0.309 4.136 0.007 -0.008 0.009 0.000
30201 4 5.929 -1.432 11.646 0.005 -0.000 0.006 -0.000
11454 4 8.615 6.931 -3.694 -0.010 0.002 -0.004 -0.000
6550 4 8.835 4.115 9.969 -0.001 -0.000 0.005 0.000
6117 4 1.203 1.315 13.082 0.004 0.005 0.014 -0.000
2368 4 1.856 10.125 17.946 -0.002 0.005 0.004 0.000
1448 4 -3.804 11.287 12.692 0.002 0.002 -0.003 -0.000
14331 4 10.675 0.341 11.346 0.004 -0.005 0.003 -0.000
5359 4 12.113 12.926 20.153 0.002 0.014 -0.007 -0.000
2705 4 3.851 10.842 12.670 0.000 0.003 -0.001 -0.000
521 4 2.786 11.345 8.792 -0.003 -0.010 -0.004 -0.000
5540 4 1.304 9.263 7.411 -0.002 -0.004 0.012 0.000
9532 4 3.625 -2.146 4.361 -0.005 -0.000 0.004 -0.000
13479 4 -0.499 2.596 -0.968 -0.008 0.006 0.003 -0.000
445 4 5.636 -1.520 -2.556 -0.006 -0.005 -0.010 0.000
9361 4 -1.746 5.173 3.588 0.009 0.006 -0.008 0.000
8687 4 -1.589 6.352 -1.100 0.008 0.005 0.005 0.000
19803 4 -4.224 0.610 4.819 0.001 0.002 -0.004 0.000
6066 4 6.217 9.703 -1.052 0.001 -0.006 -0.005 -0.000
7604 4 7.759 -1.537 8.967 -0.001 -0.000 -0.011 -0.000
6654 4 10.687 6.124 14.643 0.007 -0.010 -0.004 -0.000
10081 4 4.799 10.943 1.303 -0.004 -0.005 0.002 0.000
14345 4 4.156 -2.746 0.967 0.002 0.011 -0.003 -0.000
1408 4 8.796 13.475 10.850 0.000 0.006 -0.004 -0.000
19691 4 8.935 5.289 1.381 0.002 0.009 -0.003 -0.000
3452 4 1.136 12.457 13.316 -0.001 0.004 -0.001 -0.000
9124 4 6.159 -2.603 0.023 0.007 0.003 -0.001 0.000
21312 4 1.271 -2.792 4.210 0.001 0.015 -0.002 -0.000
891 4 7.198 12.673 6.131 0.000 0.004 0.004 -0.000
9443 4 -0.699 2.079 14.874 -0.011 -0.005 -0.002 0.000
8421 4 0.105 13.093 18.222 0.006 -0.005 -0.002 0.000
930 4 -0.230 0.660 1.436 -0.004 -0.003 0.001 0.000
19782 4 10.304 5.518 3.757 0.004 0.007 -0.002 -0.000
11231 4 7.080 2.305 14.403 0.006 0.002 0.000 -0.000
3702 4 4.230 12.683 16.845 -0.001 0.002 -0.000 0.000
18583 4 9.902 7.709 -1.176 0.008 0.003 -0.005 -0.000
1604 4 6.663 8.786 16.321 -0.002 -0.007 -0.004 0.000
19007 4 -1.565 7.525 -4.153 0.006 -0.009 0.006 -0.000
17641 4 2.408 11.928 -1.932 0.006 0.003 -0.002 0.000
20297 4 3.630 6.293 15.470 0.010 0.005 -0.002 0.000
725 4 3.801 10.189 6.430 -0.013 0.007 0.007 -0.000
2408 4 -2.007 1.561 18.535 0.001 -0.007 -0.003 0.000
3923 4 0.016 8.212 17.105 -0.001 0.002 0.009 -0.000
2511 4 1.360 -1.954 17.187 -0.004 0.004 -0.011 -0.000
4517 4 10.222 9.254 -3.153 -0.011 -0.002 0.001 -0.000
4610 4 -2.443 10.263 17.313 0.002 0.012 -0.001 -0.000
5252 4 11.894 2.029 18.165 0.004 0.000 0.002 -0.000
8731 4 10.205 0.625 13.979 -0.005 -0.007 -0.003 -0.000
12393 4 2.627 -0.461 8.040 -0.004 0.008 -0.001 -0.000
172 4 13.170 3.699 -0.571 0.000 0.006 -0.011 -0.000
8762 4 10.100 -2.582 8.312 -0.003 0.001 -0.013 -0.000
23835 4 5.702 8.803 4.995 -0.001 0.005 0.009 0.000
18607 4 1.295 3.272 0.629 -0.001 -0.000 -0.005 0.000
1364 4 9.060 10.019 3.359 -0.009 0.003 0.000 0.000
11146 4 2.296 8.132 16.211 0.006 -0.013 -0.001 0.000
6039 4 0.414 -0.473 15.697 -0.001 -0.007 0.000 0.000
31595 4 1.066 4.457 9.149 0.002 -0.000 -0.002 0.000
2729 4 11.348 6.021 17.239 -0.008 0.005 0.000 0.000
5723 4 12.546 10.582 15.589 -0.007 -0.006 -0.002 0.000
9018 4 0.133 1.801 17.071 -0.012 0.001 -0.003 0.000
1765 4 1.819 3.672 16.658 0.006 0.004 -0.007 0.000
3563 4 2.394 10.791 20.923 -0.009 -0.000 0.006 0.000
9936 4 5.903 5.992 5.493 -0.006 0.015 -0.011 0.000
9137 4 2.145 2.275 8.619 0.017 -0.011 -0.005 0.000
9534 4 -3.170 0.283 7.152 0.009 0.004 -0.011 0.000
9474 4 4.437 0.572 9.296 0.011 0.001 -0.002 -0.000
845 4 -3.506 0.249 19.356 -0.006 0.001 0.007 -0.000
27551 4 10.051 0.467 5.192 -0.002 -0.010 -0.004 0.000
19490 4 6.782 1.232 11.828 0.014 0.003 0.006 -0.000
23706 4 -1.675 8.815 1.306 -0.011 -0.006 -0.002 -0.000
2462 4 3.896 3.435 19.996 -0.008 -0.001 0.008 0.000
5444 4 1.874 10.764 4.701 0.004 0.002 -0.009 0.000
19284 4 -2.051 10.741 14.756 -0.002 -0.003 0.010 0.000
5737 4 0.850 6.067 -1.689 0.001 -0.002 -0.009 0.000
6913 4 8.817 4.792 14.326 -0.007 -0.003 0.004 0.000
20141 4 -0.708 6.674 19.164 0.003 -0.011 0.005 -0.000
3085 4 8.248 3.556 -3.445 0.002 0.006 -0.004 -0.000
18401 4 -3.158 2.521 -1.684 0.002 0.005 0.005 -0.000
5060 4 -2.636 7.873 17.774 -0.000 0.006 -0.019 0.000
7474 4 -1.051 9.058 10.291 -0.010 -0.003 0.002 0.000
6754 4 8.103 9.298 8.605 -0.003 -0.004 0.001 -0.000
9381 4 8.462 1.121 9.325 -0.009 0.007 0.001 0.000
19214 4 9.799 3.471 5.538 0.005 0.008 0.015 -0.000
2168 4 4.407 4.437 17.685 0.007 -0.009 0.015 0.000
10482 4 11.814 4.197 15.381 0.006 -0.009 -0.001 0.000
19778 4 1.350 2.070 -4.523 -0.002 0.007 0.013 -0.000
18852 4 10.552 4.918 7.782 -0.003 0.010 0.005 -0.000
9974 4 -3.778 1.576 0.930 0.006 0.000 -0.003 -0.000
5783 4 1.572 -1.754 6.022 0.007 -0.002 -0.004 0.000
19835 4 13.445 -1.791 4.970 0.010 -0.004 0.007 0.000
11573 4 8.069 10.783 17.217 -0.002 0.009 0.011 -0.000
247 4 6.064 10.733 6.998 0.008 0.008 0.000 -0.000
2699 4 -2.597 4.836 18.873 -0.002 0.001 -0.002 0.000
3962 4 -4.168 7.208 19.303 -0.002 0.006 0.004 -0.000
3039 4 11.498 2.936 13.477 0.002 0.005 -0.009 -0.000
19253 4 -2.302 12.722 4.888 -0.003 -0.015 0.003 0.000
25169 4 -2.466 0.297 2.992 -0.002 -0.002 -0.010 0.000
8692 4 -4.770 -2.013 -3.076 -0.000 0.001 -0.002 0.000
427 4 8.642 8.643 17.961 0.010 0.009 -0.009 0.000
11869 4 10.157 8.526 15.743 0.000 -0.001 -0.000 0.000
15680 4 9.966 11.238 19.034 0.005 0.009 -0.001 -0.000
1297 4 6.067 14.172 8.624 -0.001 0.000 0.004 -0.000
6880 4 5.094 7.015 17.847 -0.009 0.004 0.004 0.000
4558 4 13.930 12.715 16.035 -0.004 -0.004 -0.003 -0.000
844 4 8.696 8.896 1.102 0.002 0.006 0.005 -0.000
525 4 13.686 3.415 10.711 0.010 -0.003 0.001 -0.000
1702 4 2.461 7.270 2.294 0.010 0.008 0.002 0.000
174 4 -2.776 5.567 10.913 0.002 -0.014 0.007 0.000
5838 4 7.799 4.626 6.995 -0.006 0.005 0.003 -0.000
13178 4 0.400 8.111 1.075 -0.003 -0.006 0.008 0.000
1004 4 -0.533 4.189 -5.062 0.005 0.003 0.016 0.000
10782 4 9.736 6.712 10.140 0.005 -0.005 -0.002 -0.000
214 4 7.157 4.997 3.502 0.003 0.005 0.002 -0.000
7666 4 5.256 0.805 15.245 -0.004 -0.005 0.005 -0.000
923 4 -1.189 13.085 -1.464 -0.009 -0.000 0.012 0.000
3143 4 -2.043 8.586 12.759 -0.001 0.004 -0.009 0.000
18847 4 3.165 7.818 -4.100 -0.014 0.005 0.001 -0.000
18648 4 -5.143 6.714 2.327 -0.005 0.004 -0.008 0.000
12407 4 10.302 4.840 12.141 -0.011 0.001 0.023 0.000
16043 4 11.643 -1.758 6.513 0.007 0.004 -0.012 0.000
177 4 5.257 12.875 -1.103 -0.000 0.006 0.013 -0.000
7742 4 1.738 13.677 19.491 -0.002 0.003 0.003 -0.000
12387 4 -4.766 4.535 -2.948 0.005 0.005 -0.002 -0.000
31558 4 -4.648 -0.373 8.929 -0.001 0.005 0.004 -0.000
2681 4 1.458 10.186 10.348 -0.012 0.007 0.008 -0.000
19223 4 6.114 -0.570 6.390 0.004 0.007 -0.004 -0.000
1285 4 -3.840 12.981 -0.675 0.003 0.003 0.007 -0.000
5273 4 0.694 0.817 -2.477 0.003 -0.007 -0.001 0.000
20844 4 12.005 1.590 16.002 0.005 -0.004 0.004 0.000
15578 4 -0.231 2.140 7.308 -0.005 0.004 0.001 0.000
2066 4 5.446 10.392 17.794 0.003 -0.000 -0.007 0.000
15436 4 -0.288 6.055 5.614 -0.004 0.005 -0.007 0.000
2006 4 -0.317 11.305 16.496 0.008 0.006 0.007 0.000
12673 4 -2.117 11.712 1.682 0.001 -0.001 0.000 -0.000
23659 4 7.069 5.958 -5.034 -0.005 -0.003 -0.001 -0.000
5000 4 -3.991 8.991 7.204 -0.002 0.002 -0.000 0.000
7116 4 10.870 11.287 3.647 0.000 -0.001 -0.002 0.000
894 4 8.515 -1.017 19.243 0.014 -0.003 -0.002 -0.000
14714 4 -3.477 8.397 15.687 -0.001 -0.007 0.003 -0.000
846 4 10.341 0.223 8.066 -0.008 -0.002 -0.001 0.000
8374 4 -4.672 0.164 -0.853 -0.006 0.011 -0.006 0.000
23675 4 1.872 1.518 2.918 -0.004 -0.002 0.004 -0.000
1161 4 8.593 12.548 4.295 -0.005 0.004 0.005 -0.000
3429 4 8.669 7.720 3.148 -0.007 0.000 -0.011 -0.000
6080 4 7.840 6.304 17.942 0.011 0.004 -0.010 0.000
23874 4 -2.336 3.848 0.387 -0.004 -0.002 -0.003 0.000
13194 4 5.660 7.805 7.251 -0.009 -0.008 0.006 0.000
7519 4 9.062 1.659 18.633 0.010 -0.009 -0.000 0.000
11571 4 8.126 0.849 16.255 0.010 0.003 -0.004 -0.000
321 4 2.278 5.934 4.485 0.003 -0.000 -0.010 0.000
16540 4 -0.902 10.539 12.880 0.005 0.003 -0.007 -0.000
2053 4 4.975 -0.955 19.390 0.012 -0.016 0.011 -0.000
12312 4 -4.554 9.318 -2.156 0.013 0.008 0.001 -0.000
6994 4 4.825 -2.117 14.099 0.006 0.004 0.002 0.000
9192 4 12.453 0.853 9.895 -0.005 -0.007 -0.005 0.000
13599 4 -0.492 2.773 10.167 0.002 -0.001 -0.000 0.000
17163 4 3.760 14.921 -1.697 0.009 0.006 -0.000 -0.000
27166 4 1.869 8.965 -1.649 -0.007 0.004 0.003 0.000
526 4 10.998 7.577 4.134 -0.013 -0.002 -0.008 -0.000
23632 4 2.177 -0.843 14.194 -0.008 -0.002 0.001 -0.000
20075 4 -0.855 4.079 20.653 0.006 0.006 0.009 0.000
5399 4 12.219 9.637 2.350 0.003 -0.003 -0.002 0.000
7040 4 -0.744 10.874 8.565 0.006 0.001 -0.007 -0.000
10332 4 13.276 5.337 -3.064 0.012 0.003 0.009 0.000
1842 4 -4.635 14.575 17.704 -0.006 0.004 -0.001 0.000
5435 4 11.855 14.137 15.390 0.007 0.008 0.007 0.000
10296 4 -2.357 3.321 16.424 -0.004 0.005 0.014 0.000
11292 4 12.244 -3.494 18.080 0.005 -0.006 -0.004 -0.000
18774 4 0.267 12.557 6.737 0.003 0.005 -0.006 -0.000
19887 4 10.910 11.928 12.230 0.003 0.002 0.003 0.000
11533 4 6.959 0.793 20.404 0.000 0.000 -0.008 0.000
13958 4 -5.585 9.966 0.271 0.004 -0.004 0.001 0.000
19080 4 9.689 15.169 -2.930 -0.007 0.005 -0.009 0.000
2452 4 10.545 13.617 6.124 0.004 -0.000 -0.008 0.000
2848 4 1.678 -2.249 21.179 -0.008 0.002 -0.003 -0.000
5473 4 -3.130 7.135 9.091 -0.007 -0.006 -0.001 0.000
2427 4 13.860 9.901 5.791 0.006 -0.003 0.004 -0.000
19702 4 12.081 1.552 0.738 0.010 -0.003 0.004 0.000
1295 4 3.586 0.564 -3.138 0.004 0.004 0.002 0.000
4946 4 -0.364 6.555 2.818 -0.006 0.007 -0.015 0.000
21427 4 -4.714 12.006 2.041 -0.012 0.003 0.004 -0.000
2102 4 13.018 12.421 13.744 0.006 -0.003 0.001 0.000
1380 4 1.093 13.757 -0.816 0.004 -0.008 -0.001 0.000
2064 4 -0.252 8.908 14.870 0.011 -0.005 -0.012 0.000
1506 4 12.017 12.007 1.173 -0.002 0.014 0.004 0.000
1839 4 4.383 6.539 13.147 -0.006 0.005 -0.001 0.000
6238 4 10.617 10.538 16.745 0.004 -0.005 -0.004 0.000
1286 4 10.499 4.408 18.824 -0.011 -0.007 0.000 0.000
9762 4 -0.413 5.121 0.599 0.004 0.012 0.009 -0.000
3420 4 13.141 8.095 17.450 0.002 -0.007 0.001 -0.000
969 4 -0.580 2.440 2.856 -0.003 -0.013 -0.004 -0.000
7306 4 -2.238 9.826 4.103 0.009 -0.010 0.002 -0.000
404 4 -3.006 -0.133 10.863 -0.001 -0.005 -0.012 0.000
3247 4 10.031 13.580 13.870 0.009 -0.011 0.004 0.000
19367 4 5.053 8.409 -5.574 -0.001 -0.002 -0.003 -0.000
2 4 -1.582 4.073 -2.451 0.001 -0.000 0.002 -0.000
26685 4 -2.035 0.453 -2.000 -0.001 0.004 0.000 0.000
4024 4 -2.547 6.403 1.327 0.005 0.008 0.001 0.000
12715 4 8.489 11.319 -5.416 0.003 -0.009 -0.013 -0.000
4601 4 12.556 2.706 8.247 -0.009 -0.010 0.004 0.000
9933 4 -2.869 10.234 -0.563 -0.007 0.005 -0.005 0.000
23631 4 -2.237 7.420 5.012 -0.002 -0.004 -0.002 0.000
26524 4 -4.385 0.015 13.049 0.006 -0.000 0.001 0.000
4910 4 0.144 10.105 -0.268 -0.002 -0.005 0.001 0.000
9961 4 -4.547 4.355 2.142 -0.005 0.011 -0.001 -0.000
7071 4 5.099 13.649 11.317 0.011 -0.003 0.001 -0.000
16169 4 1.065 8.829 21.332 -0.002 0.001 0.002 -0.000
2435 4 13.619 -2.904 7.310 0.005 -0.005 -0.001 0.000
9814 4 9.036 2.102 12.893 -0.002 0.007 -0.000 0.000
6549 4 11.016 -0.643 20.476 -0.001 -0.001 -0.001 0.000
2401 4 0.349 1.593 19.996 0.019 0.009 0.005 -0.000
22817 4 -4.139 5.749 -0.794 -0.004 0.008 0.000 -0.000
2010 4 2.686 14.274 15.879 -0.003 0.003 -0.004 0.000
12399 4 -3.027 11.825 -2.729 -0.004 0.020 0.007 -0.000
2932 4 10.669 11.473 -2.227 0.008 0.005 -0.004 -0.000
6594 4 8.850 10.213 11.194 -0.004 -0.004 -0.000 -0.000
899 4 9.021 3.096 3.669 -0.001 0.005 -0.009 -0.000
8698 4 10.777 11.738 14.799 -0.002 -0.006 -0.010 -0.000
12187 4 1.938 -0.060 -4.797 0.010 -0.007 -0.001 0.000
25166 4 7.699 9.533 -3.160 -0.001 -0.004 -0.005 -0.000
444 4 -0.484 -2.488 5.881 0.003 -0.014 0.008 0.000
14447 4 8.975 10.976 6.880 -0.001 0.000 -0.008 -0.000
22440 4 5.654 -1.906 3.125 -0.001 0.000 0.003 -0.000
18965 4 -2.460 -0.423 0.346 -0.008 -0.001 -0.001 0.000
93 4 -3.247 7.661 -2.693 0.005 -0.004 0.009 0.000
9123 4 14.600 7.107 6.278 0.006 0.009 -0.015 0.000
3278 4 4.942 12.807 5.666 -0.000 0.001 0.001 -0.000
1735 4 11.980 -1.706 9.661 0.008 -0.004 -0.005 0.000
6716 4 11.907 10.544 -4.250 -0.002 0.004 -0.001 -0.000
1612 4 12.243 6.649 6.147 0.003 0.001 -0.005 -0.000
5352 4 7.499 12.149 8.894 -0.005 -0.001 -0.006 -0.000
7034 4 -4.350 10.719 4.502 0.008 -0.003 -0.001 -0.000
2176 4 -3.398 11.021 10.071 0.001 0.001 0.015 -0.000
16696 4 6.990 11.243 11.262 -0.006 -0.008 -0.003 -0.000
1247 4 0.966 -0.384 -0.335 0.001 0.005 -0.004 -0.000
2251 4 7.716 6.357 20.690 -0.004 -0.002 -0.002 0.000
4313 4 2.401 15.243 1.763 -0.005 -0.005 -0.007 -0.000
4518 4 -3.440 2.712 11.573 0.000 -0.010 -0.000 0.000
13997 4 -4.488 3.437 15.129 0.003 -0.006 0.000 -0.000
3854 4 -1.766 12.767 13.099 -0.009 0.012 0.001 -0.000
9909 4 13.575 -0.451 11.402 0.004 0.000 -0.006 -0.000
4985 4 -0.447 9.881 18.866 0.001 0.009 -0.001 0.000
17622 4 9.633 0.697 0.216 -0.005 0.002 -0.001 -0.000
24378 4 0.901 12.479 10.582 -0.011 0.004 -0.002 -0.000
5634 4 9.299 -1.672 3.828 -0.002 0.001 0.014 -0.000
27962 4 11.418 9.004 10.882 0.007 0.007 0.010 -0.000
2420 4 -2.534 3.143 6.491 0.004 0.004 -0.002 0.000
27485 4 11.526 -1.620 13.119 -0.003 -0.011 0.004 0.000
10282 4 13.487 10.065 13.097 0.005 -0.009 0.006 -0.000
19736 4 3.008 12.170 11.010 -0.006 -0.010 -0.007 -0.000
30874 4 -0.304 14.340 4.277 -0.005 -0.006 0.007 -0.000
9014 4 9.903 0.168 -2.485 0.010 -0.009 0.008 -0.000
5381 4 -2.945 -0.829 -4.477 0.016 0.005 0.008 -0.000
648 4 4.004 12.484 19.752 0.003 0.003 0.002 0.000
19729 4 1.283 13.579 -3.229 0.003 0.004 0.007 0.000
7159 4 12.584 10.602 -1.435 0.006 -0.001 -0.001 0.000
11568 4 0.118 13.826 15.687 -0.002 -0.006 0.005 0.000
13597 4 12.877 14.797 3.711 -0.005 0.003 0.001 0.000
488 4 -1.489 1.167 5.387 -0.011 0.005 0.000 -0.000
4552 4 10.800 8.063 8.158 0.001 -0.006 -0.006 -0.000
19899 4 12.090 14.755 8.056 -0.004 0.016 -0.005 0.000
17003 4 -0.164 12.122 20.610 0.002 -0.005 0.008 -0.000
1871 4 3.944 9.400 19.509 -0.001 0.006 0.002 -0.000
15943 4 -5.746 10.818 6.183 -0.013 -0.001 0.000 0.000
19096 4 3.358 -0.808 -0.660 0.002 0.001 0.001 0.000
18907 4 12.163 2.236 3.846 0.010 0.005 -0.009 0.000
2108 4 9.125 9.172 20.670 0.001 -0.001 -0.010 -0.000
13082 4 13.301 4.519 12.791 -0.003 0.004 0.010 -0.000
2207 4 -1.763 5.751 16.450 0.002 -0.003 -0.001 -0.000
847 4 13.458 6.897 1.525 0.002 0.009 0.000 0.000
251 4 12.288 0.290 -1.277 0.008 0.008 -0.009 0.000
1668 4 12.975 8.435 0.177 -0.006 0.000 0.008 -0.000
1764 4 -1.213 14.710 11.318 -0.001 -0.002 -0.005 -0.000
641 4 -2.632 5.337 -4.403 0.003 -0.007 -0.003 -0.000
4479 4 2.096 13.588 3.483 -0.005 -0.013 0.011 0.000
216 4 14.537 6.197 -1.090 -0.001 0.001 0.006 0.000
16364 4 -4.318 8.059 4.392 -0.004 -0.003 -0.011 0.000
14763 4 -4.760 3.633 6.518 0.018 0.002 0.004 -0.000
1402 4 -2.952 2.657 20.691 -0.004 -0.006 0.005 0.000
1696 4 13.481 14.598 19.302 0.001 0.001 0.010 -0.000
7277 4 -2.133 -0.451 13.864 -0.004 -0.004 -0.003 0.000
4713 4 6.245 14.978 -1.098 0.007 0.003 0.001 -0.000
27161 4 -0.853 2.220 -3.381 -0.003 0.007 -0.012 -0.000
2167 4 6.923 12.823 13.450 -0.002 -0.000 0.008 -0.000
19015 4 9.134 12.812 -3.519 -0.004 -0.003 -0.001 0.000
855 4 12.127 7.118 12.662 -0.004 0.001 -0.000 -0.000
30000 4 -4.947 5.716 -5.319 0.001 0.011 0.010 0.000
11555 4 9.069 14.292 8.389 -0.003 0.005 0.015 -0.000
2418 4 -4.157 -1.490 1.763 -0.002 0.001 -0.011 0.000
892 4 -1.721 13.346 8.805 -0.006 -0.004 -0.001 -0.000
18781 4 13.830 6.405 -5.183 0.005 -0.003 -0.009 0.000
7717 4 12.356 -0.838 15.279 -0.008 -0.009 0.007 -0.000
6353 4 11.687 13.652 -2.963 0.004 -0.007 -0.001 0.000
10896 4 2.725 -0.099 19.665 0.004 -0.001 0.003 -0.000
20276 4 12.369 1.295 6.405 0.000 -0.008 0.013 0.000
5079 4 -3.038 14.515 -4.380 0.011 -0.007 0.000 -0.000
18657 4 10.566 15.152 -5.955 -0.002 -0.003 -0.009 0.000
487 4 13.296 5.627 4.088 -0.006 -0.001 0.005 -0.000
2579 4 -2.653 15.352 5.861 -0.007 -0.011 0.003 -0.000
20545 4 -3.181 1.842 14.218 -0.000 0.002 -0.000 0.000
2802 4 10.643 12.458 9.713 0.006 0.008 -0.017 -0.000
659 4 8.922 -1.611 6.267 0.000 -0.012 0.003 0.000
5387 4 10.593 0.022 17.126 -0.002 0.015 -0.002 -0.000
10031 4 12.187 12.917 17.575 0.002 0.011 -0.009 0.000
9772 4 -3.212 -1.433 17.877 0.004 0.001 -0.004 0.000
7448 4 6.998 11.407 20.673 -0.005 -0.003 0.007 -0.000
10769 4 12.198 -0.158 3.745 -0.009 -0.003 -0.007 -0.000
2339 4 9.537 8.540 -5.284 -0.003 -0.010 0.010 -0.000
2830 4 12.854 6.869 8.316 -0.001 -0.002 -0.000 0.000
9577 4 13.289 4.606 19.389 -0.000 -0.004 -0.010 -0.000
13960 4 -2.612 -1.740 4.690 -0.000 0.003 -0.003 0.000
2270 4 13.508 3.822 16.879 -0.003 0.007 0.012 -0.000
14353 4 3.522 -1.645 12.062 0.011 0.006 -0.005 -0.000
5081 4 9.699 6.749 19.597 0.007 -0.004 -0.006 -0.000
10740 4 14.217 3.117 2.049 -0.008 0.008 -0.009 -0.000
8713 4 7.900 -3.403 -2.459 -0.004 -0.009 0.011 0.000
7781 4 -0.346 -0.909 11.920 -0.005 0.003 0.016 0.000
13152 4 2.654 1.996 18.282 -0.011 -0.017 0.007 -0.000
6315 4 13.184 11.199 10.292 0.003 -0.006 -0.012 -0.000
19205 4 -4.008 9.267 11.313 -0.007 0.008 -0.011 0.000
13556 4 -0.976 -2.693 0.268 -0.003 -0.004 0.013 0.000
11139 4 14.588 6.112 10.743 0.000 0.007 -0.014 -0.000
7360 4 -4.289 9.626 18.619 -0.008 0.012 0.002 0.000
945 4 14.044 -2.690 -5.090 -0.003 0.007 -0.010 -0.000
8390 4 13.304 13.666 10.508 0.000 0.005 -0.007 0.000
722 4 6.262 14.491 4.490 0.007 0.005 -0.002 -0.000
2210 4 9.633 14.253 18.969 0.001 -0.002 -0.003 -0.000
13183 4 -0.249 -1.841 -2.253 0.000 0.013 0.001 0.000
6559 4 -1.483 -1.999 16.109 -0.005 0.004 0.004 0.000
1650 4 6.608 13.542 1.657 -0.004 -0.009 -0.001 -0.000
4955 4 -1.199 15.472 17.771 -0.004 0.002 -0.008 0.000
2488 4 0.798 -3.138 7.958 0.001 -0.006 -0.007 -0.000
2485 4 13.078 12.852 5.475 -0.001 0.002 0.003 -0.000
19810 4 -5.124 13.015 -3.733 -0.005 -0.003 0.000 -0.000
1400 4 5.503 13.890 18.453 0.009 0.006 0.001 -0.000
20190 4 6.453 8.393 19.334 -0.001 0.004 0.009 0.000
19801 4 -2.360 13.317 19.098 -0.002 -0.013 -0.003 -0.000
1652 4 12.054 8.534 -5.624 0.004 -0.013 -0.001 -0.000
9252 4 -2.308 -2.154 8.987 0.007 0.007 0.001 0.000
5627 4 -5.345 6.529 8.623 -0.008 0.003 -0.001 0.000
13066 4 -2.762 2.861 3.525 0.001 0.001 -0.002 0.000
4825 4 10.545 -1.214 1.976 -0.002 -0.002 0.001 0.000
24395 4 5.914 -1.168 16.944 -0.002 -0.005 -0.002 -0.000
821 4 8.190 -0.664 11.366 0.007 -0.001 -0.004 0.000
27578 4 12.885 8.120 -2.168 0.001 -0.004 0.002 0.000
19376 4 10.225 4.872 -2.771 -0.005 0.010 0.010 0.000
6146 4 -3.409 6.188 13.891 -0.006 -0.011 -0.004 -0.000
5677 4 4.279 5.688 -4.391 0.011 0.012 -0.002 -0.000
2218 4 13.112 9.694 8.236 -0.007 -0.002 -0.004 -0.000
6046 4 13.995 0.080 8.757 -0.001 -0.003 0.007 -0.000
9962 4 -3.824 -1.081 15.256 -0.005 -0.003 0.002 0.000
9946 4 7.100 -0.495 14.153 0.002 0.003 0.000 -0.000
23239 4 6.105 -2.663 7.236 -0.011 0.011 -0.001 -0.000
26701 4 11.380 0.176 -4.808 -0.001 0.005 -0.005 -0.000
10374 4 13.235 11.710 3.097 -0.005 0.004 -0.004 0.000
10065 4 -4.011 1.035 16.793 -0.013 0.013 -0.009 0.000
11565 4 11.411 -2.816 3.662 0.004 -0.001 -0.011 -0.000
25479 4 13.935 0.971 2.572 -0.002 -0.003 -0.001 0.000
11888 4 12.604 10.889 18.124 0.005 -0.011 0.007 -0.000
10354 4 9.574 7.416 12.699 -0.010 0.000 -0.003 0.000
24054 4 -4.375 12.023 15.406 0.008 0.010 -0.002 -0.000
2668 4 1.594 14.741 6.020 -0.008 -0.001 0.003 -0.000
13177 4 -4.222 5.510 16.707 0.001 -0.008 -0.001 -0.000
11529 4 1.229 -1.671 9.801 -0.009 0.003 -0.000 0.000
18891 4 6.093 -3.286 -4.508 0.002 -0.004 -0.009 0.000
10 4 -4.339 5.073 20.792 0.015 0.009 0.001 0.000
10370 4 13.204 0.757 20.474 0.000 -0.010 0.004 -0.000
944 4 9.319 1.237 -5.529 0.005 0.001 -0.002 -0.000
31068 4 -4.893 -3.077 15.875 -0.008 0.005 -0.000 0.000
2223 4 -1.121 12.302 -4.254 0.001 -0.006 0.009 0.000
19656 4 -2.082 9.949 -3.674 -0.008 -0.002 -0.002 0.000
5391 4 2.489 14.263 12.394 0.005 -0.009 -0.001 -0.000
19504 4 -4.960 0.363 -3.254 0.003 0.000 -0.007 0.000
9097 4 -5.657 10.970 8.702 -0.004 0.000 -0.001 0.000
6015 4 -4.739 15.071 5.168 0.001 -0.002 0.005 0.000
19342 4 10.301 14.350 0.706 0.003 -0.004 -0.002 0.000
3082 4 11.490 -2.625 -4.954 0.004 -0.004 -0.003 0.000
16170 4 3.611 15.149 19.746 -0.006 0.013 -0.012 0.000
81 4 1.606 3.820 19.401 -0.003 0.003 -0.001 0.000
10253 4 13.667 -2.324 19.848 -0.005 -0.001 0.002 0.000
2772 4 7.985 -1.285 17.137 0.011 -0.003 0.008 -0.000
22588 4 -2.537 -2.116 -1.646 -0.000 -0.005 -0.003 -0.000
649 4 10.871 8.851 19.009 -0.002 -0.007 -0.005 0.000
23210 4 13.611 -1.760 2.706 -0.006 0.010 -0.007 -0.000
13408 4 13.070 -2.348 -2.704 0.005 -0.010 -0.003 0.000
7376 4 -5.512 10.110 16.730 0.002 0.000 0.006 -0.000
4074 4 7.890 14.879 17.198 -0.003 -0.004 0.006 -0.000
3016 4 -4.688 12.817 20.174 -0.011 -0.002 -0.003 -0.000
2151 4 3.671 -3.177 -4.550 0.008 -0.001 0.002 0.000
4440 4 0.636 13.117 1.346 0.004 -0.005 -0.004 -0.000
8967 4 1.404 11.331 -4.989 0.005 0.001 -0.015 0.000
164 4 -3.489 14.288 1.644 0.001 0.009 0.008 0.000
5678 4 -2.590 10.793 20.086 -0.005 -0.007 -0.020 0.000
14686 4 10.549 -2.775 19.633 0.004 -0.012 -0.007 0.000
2532 4 10.593 -2.251 -2.193 -0.009 -0.005 -0.013 0.000
1083 4 1.479 5.062 -4.546 0.003 -0.008 -0.003 0.000
3010 4 13.573 -0.055 -4.498 0.013 0.011 0.009 -0.000
77 4 14.427 14.235 6.467 0.000 0.011 -0.007 0.000
4486 4 -5.463 13.363 13.239 0.001 0.015 -0.007 0.000
2663 4 8.246 14.059 21.322 -0.004 -0.005 -0.002 -0.000
19734 4 -3.086 2.099 -4.227 0.001 0.011 0.001 0.000
9565 4 -0.861 14.492 20.495 -0.001 0.004 0.003 -0.000
18844 4 -4.794 6.650 11.109 0.002 -0.001 0.001 0.000
4136 4 -5.449 1.157 2.510 -0.002 0.011 0.006 0.000
5781 4 -5.257 3.378 -0.038 -0.006 -0.014 -0.008 -0.000
20673 4 4.398 1.086 20.269 0.003 -0.000 0.006 -0.000
16024 4 13.361 5.918 15.209 0.007 -0.002 -0.008 -0.000
2610 4 1.467 15.748 17.753 0.007 0.006 0.001 -0.000
4269 4 -1.233 1.342 -5.864 -0.001 0.001 -0.002 -0.000
19009 4 10.272 15.838 9.779 -0.000 0.008 -0.004 0.000
9543 4 5.712 -3.230 9.835 -0.011 0.002 0.000 -0.000
14626 4 -0.184 -2.094 14.118 -0.001 -0.006 0.005 -0.000
10789 4 14.080 8.744 10.568 0.009 -0.002 -0.013 -0.000