ITEM: TIMESTEP
24000
ITEM: NUMBER OF ATOMS
32000
ITEM: BOX BOUNDS pp pp pp
-5.909560 76.389560
-4.704534 75.184534
-4.931890 75.411890
ITEM: ATOMS id type x y z vx vy vz q
488 4 2.026 11.222 12.808 0.001 -0.009 0.008 0.000
529 4 -0.462 8.981 18.816 -0.007 -0.010 -0.001 -0.000
531 4 -2.718 10.755 13.065 0.007 -0.015 -0.006 0.000
810 4 -0.797 -3.786 16.942 -0.001 -0.005 0.005 -0.000
847 4 4.500 10.692 13.772 -0.011 0.009 0.010 -0.000
890 4 3.568 1.362 11.145 -0.003 -0.005 -0.003 0.000
892 4 6.288 5.392 19.636 0.011 -0.009 0.007 0.000
893 4 10.439 2.666 2.574 -0.009 -0.002 0.006 -0.000
896 4 11.152 2.969 12.462 -0.011 0.002 -0.010 -0.000
1206 4 6.821 5.427 0.083 -0.001 0.004 0.001 -0.000
1218 4 12.087 0.913 5.231 0.001 0.002 -0.000 0.000
1250 4 13.537 2.564 1.494 0.001 -0.008 0.002 0.000
1285 4 -0.021 3.010 5.764 0.012 -0.004 -0.011 0.000
1295 4 8.166 3.691 3.635 0.010 0.001 -0.014 0.000
1329 4 5.011 13.728 14.413 -0.009 0.003 0.007 -0.000
1338 4 9.445 12.022 5.384 -0.004 -0.004 -0.009 -0.000
1610 4 0.222 5.258 7.242 -0.003 0.004 0.005 0.000
1644 4 10.849 3.213 14.739 -0.003 -0.004 -0.009 -0.000
1646 4 3.598 -0.203 5.231 -0.006 -0.007 -0.003 -0.000
1650 4 -0.093 6.197 2.469 -0.008 0.003 0.011 0.000
1651 4 -0.343 10.246 8.593 0.000 -0.007 0.005 0.000
1655 4 8.022 6.124 8.724 0.010 0.013 0.002 -0.000
1689 4 4.506 -0.230 8.348 0.002 -0.002 -0.008 0.000
1690 4 6.493 1.966 7.788 0.009 -0.010 -0.009 0.000
1728 4 9.815 2.459 -0.254 -0.001 0.000 0.002 -0.000
1767 4 0.174 3.232 15.127 -0.004 -0.007 0.001 -0.000
2087 4 4.119 2.070 6.486 0.003 0.004 -0.005 0.000
2088 4 7.292 4.120 14.532 0.002 0.005 0.006 -0.000
2092 4 9.635 12.983 13.924 0.003 -0.005 -0.001 -0.000
2129 4 12.495 -1.252 15.067 -0.002 -0.005 -0.008 0.000
2412 4 4.067 6.813 16.731 -0.002 0.008 -0.010 0.000
2452 4 11.687 -0.214 8.401 -0.004 0.001 -0.009 0.000
2525 4 -3.456 7.157 14.924 0.005 0.001 0.005 -0.000
2528 4 8.717 3.460 16.656 -0.004 0.006 -0.004 -0.000
2573 4 9.415 -2.177 8.766 0.001 -0.000 -0.004 -0.000
481 4 12.135 2.517 8.296 0.002 -0.004 0.001 0.000
2455 4 1.734 5.626 11.952 0.008 0.003 0.001 -0.000
163 4 1.083 11.113 10.540 0.005 -0.002 0.004 0.000
2044 4 5.315 10.906 9.413 -0.004 0.002 -0.002 0.000
127 4 6.177 12.167 -0.823 0.011 0.013 0.015 -0.000
1732 4 8.530 6.249 17.316 0.003 0.013 0.000 -0.000
964 4 5.147 -3.444 11.792 -0.003 -0.004 0.008 0.000
1684 4 10.104 -0.396 15.906 -0.001 -0.009 -0.011 -0.000
2816 4 3.976 4.341 13.259 0.003 -0.005 -0.003 -0.000
851 4 10.464 -3.349 15.981 0.005 -0.001 -0.007 0.000
8769 4 5.828 4.915 7.692 -0.006 -0.005 0.001 0.000
2483 4 12.005 5.806 15.442 -0.002 0.004 0.001 -0.000
2603 4 10.493 10.189 13.562 -0.002 0.014 0.009 0.000
1765 4 5.354 -1.954 16.442 0.000 0.008 -0.002 -0.000
3247 4 6.212 7.461 12.182 0.008 0.010 -0.003 0.000
1727 4 0.242 8.428 21.040 -0.007 -0.002 0.003 0.000
841 4 -1.162 8.403 2.228 -0.006 -0.003 -0.001 -0.000
568 4 13.129 5.469 0.016 0.007 0.007 0.005 0.000
9968 4 11.469 7.941 13.506 0.000 0.004 0.001 -0.000
1365 4 8.095 8.958 -1.961 0.003 0.006 0.006 0.000
1696 4 10.481 2.018 18.194 0.002 -0.005 0.007 -0.000
1217 4 -1.031 5.718 9.120 0.002 -0.002 -0.009 -0.000
1725 4 7.539 0.098 12.213 -0.002 0.002 0.001 -0.000
566 4 3.399 6.719 9.457 -0.001 0.000 -0.013 -0.000
9930 4 4.727 12.622 7.360 0.000 0.005 -0.006 -0.000
4479 4 -2.155 4.428 14.976 0.013 -0.013 -0.001 -0.000
9974 4 9.218 8.552 11.117 0.001 -0.004 0.001 0.000
9565 4 3.965 5.222 21.097 0.006 0.010 -0.003 0.000
5758 4 -2.580 13.221 2.897 -0.003 0.004 -0.005 -0.000
19736 4 6.115 0.986 10.376 -0.005 0.005 -0.007 0.000
2204 4 7.895 11.340 12.732 0.001 0.011 -0.002 0.000
569 4 1.585 8.093 2.125 -0.005 0.001 0.008 0.000
19682 4 6.662 7.658 9.346 -0.007 -0.007 -0.004 -0.000
1251 4 3.263 0.622 13.899 -0.001 -0.006 0.008 0.000
7233 4 7.909 -2.150 16.945 0.012 -0.006 -0.001 -0.000
55 4 0.414 -1.844 16.568 0.005 0.005 -0.003 0.000
2643 4 4.661 7.838 14.628 0.003 -0.004 0.010 0.000
6480 4 2.198 -0.549 12.276 -0.005 0.017 0.012 0.000
1761 4 2.313 9.106 14.427 -0.003 -0.004 0.000 -0.000
456 4 13.756 4.789 -2.400 -0.002 -0.001 -0.003 -0.000
1653 4 4.213 2.166 8.908 -0.002 -0.006 -0.010 0.000
1282 4 6.254 13.421 10.279 0.004 0.002 0.005 -0.000
19776 4 12.239 13.018 10.423 0.002 -0.003 0.002 0.000
2124 4 5.361 2.541 14.481 0.006 0.004 -0.003 -0.000
19408 4 1.544 5.894 5.198 -0.002 0.010 0.004 0.000
19284 4 3.352 4.590 7.825 -0.011 0.003 0.002 0.000
565 4 10.262 10.345 3.492 -0.003 0.011 -0.000 -0.000
90 4 5.924 0.664 0.704 -0.004 0.014 0.006 -0.000
2521 4 -2.023 7.905 12.634 0.010 0.001 -0.002 0.000
4598 4 12.325 -4.013 17.992 0.001 -0.015 0.016 0.000
3700 4 8.691 6.849 12.775 0.005 0.004 -0.008 0.000
9165 4 -1.499 11.889 18.171 -0.001 0.001 0.011 -0.000
1322 4 1.990 6.704 15.539 0.002 -0.004 -0.004 -0.000
2018 4 14.025 -1.442 18.225 0.002 0.007 0.013 0.000
19625 4 8.293 -1.046 4.754 0.001 -0.008 -0.002 0.000
2209 4 5.661 4.843 16.360 0.002 -0.002 0.009 0.000
19298 4 8.130 3.840 1.108 0.002 -0.009 0.004 -0.000
846 4 6.294 5.887 5.646 0.008 0.001 -0.002 0.000
86 4 0.801 8.263 8.992 -0.004 -0.006 -0.004 0.000
19763 4 -1.856 -2.350 3.295 0.005 -0.007 0.006 -0.000
863 4 6.437 -0.359 18.476 0.001 0.018 0.001 -0.000
8763 4 -3.149 5.178 12.796 -0.003 -0.007 0.009 -0.000
9126 4 1.913 3.150 12.617 -0.010 -0.005 -0.000 -0.000
96 4 0.642 5.607 -0.483 -0.004 0.009 -0.005 -0.000
5360 4 -1.676 11.492 10.892 0.002 0.005 -0.011 0.000
5439 4 10.469 10.045 6.974 0.008 0.002 -0.005 -0.000
19490 4 2.676 5.729 1.504 0.008 -0.006 0.002 -0.000
1731 4 -1.034 7.925 7.357 -0.002 0.008 0.002 -0.000
18603 4 10.110 3.424 7.126 0.008 0.005 0.002 0.000
900 4 0.460 1.217 13.590 -0.009 -0.001 0.002 0.000
19289 4 -0.439 11.008 0.249 -0.001 -0.001 -0.001 0.000
2619 4 10.252 12.335 18.563 -0.004 -0.011 0.001 0.000
2185 4 11.212 -1.519 17.633 -0.010 -0.003 0.001 -0.000
2524 4 0.643 11.186 19.956 0.004 -0.002 0.003 0.000
1252 4 3.659 6.815 11.873 0.003 0.002 -0.003 0.000
19217 4 9.607 0.350 6.686 0.005 0.002 -0.004 0.000
2563 4 2.650 4.459 15.368 -0.005 -0.003 -0.003 0.000
9969 4 11.934 0.589 11.277 -0.004 -0.012 -0.007 -0.000
491 4 0.695 10.020 4.233 -0.003 -0.004 -0.006 0.000
19730 4 2.853 7.241 7.112 0.001 0.003 0.001 0.000
1409 4 6.747 -2.133 10.063 -0.006 -0.011 0.000 0.000
697 4 12.888 3.118 4.135 0.003 -0.014 0.014 0.000
23469 4 1.381 10.200 -1.751 0.012 0.002 -0.000 0.000
19686 4 -0.584 4.397 12.761 0.006 0.001 -0.007 0.000
490 4 6.469 5.598 2.460 -0.003 -0.004 0.011 -0.000
213 4 12.796 8.024 -0.237 0.009 0.004 -0.017 0.000
1729 4 7.245 7.179 14.792 -0.008 -0.002 -0.007 0.000
6315 4 6.279 6.939 17.425 -0.003 0.005 -0.002 -0.000
5634 4 4.353 -0.848 11.608 -0.015 -0.003 -0.014 0.000
19282 4 4.318 -1.411 2.059 -0.005 0.000 0.005 -0.000
2416 4 -2.052 9.680 17.302 -0.005 0.002 -0.007 0.000
19406 4 4.385 4.058 1.833 -0.006 -0.004 0.007 -0.000
6476 4 2.512 5.420 17.962 -0.003 -0.009 -0.000 -0.000
9561 4 6.607 -2.661 2.582 0.000 0.000 -0.009 -0.000
85 4 0.792 3.245 -1.987 -0.002 0.001 -0.002 -0.000
455 4 11.128 -1.676 5.986 0.007 0.007 0.004 0.000
1734 4 -3.011 -1.195 16.768 0.001 0.005 0.005 -0.000
1260 4 5.685 3.158 -0.454 0.008 -0.002 0.003 -0.000
1380 4 0.900 7.357 -2.433 0.007 0.000 0.008 -0.000
6913 4 4.376 3.894 18.563 -0.004 0.008 -0.004 0.000
1386 4 7.386 7.575 19.837 0.002 0.003 0.002 0.000
5315 4 2.045 6.481 21.670 -0.007 0.003 -0.008 0.000
9933 4 -2.741 8.249 19.209 0.000 0.007 -0.001 0.000
1363 4 8.496 -0.700 1.091 -0.002 -0.013 -0.005 -0.000
4073 4 4.888 5.005 -1.960 0.005 -0.012 -0.004 -0.000
4955 4 7.952 1.459 14.444 0.004 0.005 0.001 -0.000
2494 4 -0.634 7.611 15.010 -0.013 -0.007 0.000 -0.000
122 4 7.438 12.935 3.306 -0.006 0.006 0.011 -0.000
2011 4 12.707 1.742 -0.822 -0.001 -0.017 0.003 -0.000
3089 4 -2.002 8.225 9.519 -0.008 -0.004 0.000 0.000
27570 4 -2.811 6.647 3.432 -0.007 -0.000 0.008 0.000
19336 4 3.466 4.420 10.668 0.003 0.002 -0.007 0.000
17854 4 5.296 -1.406 -1.929 -0.004 0.003 0.002 0.000
19307 4 7.560 1.255 2.787 -0.000 -0.001 -0.013 -0.000
4640 4 2.952 10.623 5.623 0.001 -0.002 -0.005 0.000
1401 4 -2.224 9.880 15.260 0.007 0.008 0.007 -0.000
44 4 3.220 8.754 -3.067 0.001 -0.002 0.002 0.000
1010 4 5.775 10.259 6.923 -0.004 0.003 0.003 -0.000
6239 4 5.521 2.762 11.871 0.002 0.003 -0.009 -0.000
6119 4 6.060 5.533 10.115 0.006 0.014 0.005 0.000
66 4 10.268 0.153 -0.787 -0.008 0.001 0.002 -0.000
2485 4 10.791 7.263 17.202 -0.008 0.003 0.002 0.000
2099 4 9.046 -3.347 6.375 0.009 0.003 -0.009 0.000
4874 4 2.136 -0.224 2.508 0.009 -0.006 -0.012 -0.000
1766 4 -0.502 9.856 13.494 -0.010 0.009 0.002 0.000
487 4 2.946 5.901 -3.095 0.000 -0.009 -0.002 0.000
1611 4 -2.594 4.582 17.959 -0.009 0.002 -0.007 0.000
2126 4 -0.685 5.195 4.747 0.006 -0.002 -0.010 0.000
27962 4 2.979 1.829 3.838 0.004 0.005 0.004 -0.000
19804 4 12.280 10.343 2.047 0.001 0.007 0.009 0.000
1290 4 -1.712 10.877 6.772 0.002 -0.002 0.000 0.000
7474 4 1.860 9.059 11.621 -0.001 0.010 -0.001 -0.000
4232 4 3.035 9.396 0.037 -0.006 0.006 -0.005 0.000
447 4 3.134 6.983 -0.778 0.003 -0.004 0.008 -0.000
404 4 3.213 12.264 1.403 0.002 0.002 0.006 -0.000
460 4 10.069 0.408 3.751 -0.003 0.009 0.006 0.000
23632 4 -0.572 9.237 11.012 -0.001 -0.007 -0.001 -0.000
5473 4 1.627 14.847 5.012 0.012 0.004 0.000 0.000
575 4 7.318 8.113 3.994 0.006 -0.005 -0.000 -0.000
19689 4 1.483 3.978 3.344 0.016 0.002 -0.005 -0.000
18858 4 3.113 7.812 4.389 -0.002 0.003 -0.000 0.000
3082 4 11.838 9.210 15.531 0.000 -0.006 -0.007 -0.000
1369 4 0.789 7.452 13.035 0.006 -0.005 0.000 0.000
19688 4 -2.134 4.975 1.893 0.001 0.014 0.001 -0.000
4157 4 3.457 1.645 1.081 0.002 0.001 0.006 -0.000
458 4 14.464 6.926 -1.719 0.004 0.005 0.001 0.000
2415 4 10.158 -2.005 13.965 -0.001 0.007 -0.008 0.000
281 4 2.080 12.380 3.940 0.000 0.004 -0.007 -0.000
3307 4 4.253 0.658 18.266 -0.007 0.003 -0.012 0.000
11929 4 1.024 0.747 15.950 -0.007 -0.009 -0.003 -0.000
8644 4 8.397 2.558 12.243 -0.003 -0.010 0.014 -0.000
901 4 6.496 8.243 0.425 -0.002 0.003 -0.005 -0.000
526 4 3.235 9.240 9.374 0.007 -0.015 -0.002 0.000
5232 4 -1.729 13.441 7.627 -0.000 -0.005 -0.004 0.000
18442 4 -2.394 4.996 6.843 0.002 -0.002 0.002 0.000
405 4 -0.393 11.821 15.757 0.001 0.004 -0.002 -0.000
206 4 13.755 5.117 8.961 0.006 -0.004 -0.010 0.000
1412 4 12.968 13.005 1.563 0.000 -0.011 0.004 0.000
129 4 1.097 9.005 6.483 -0.008 -0.005 -0.003 0.000
3029 4 8.271 9.369 13.320 -0.015 -0.004 0.017 -0.000
2650 4 -0.491 14.609 20.843 0.006 0.001 -0.002 0.000
3410 4 4.314 7.273 18.986 -0.004 0.010 0.004 0.000
9164 4 8.049 13.090 0.457 -0.003 -0.001 0.011 -0.000
4995 4 1.210 4.879 9.586 0.001 0.011 0.010 0.000
5036 4 7.850 13.450 -2.096 -0.000 -0.008 -0.007 -0.000
521 4 -0.235 12.683 2.022 -0.008 -0.001 0.011 -0.000
10374 4 -0.097 -1.648 12.229 0.011 -0.004 -0.004 0.000
3405 4 -4.407 11.655 17.473 0.000 -0.004 0.003 -0.000
2085 4 3.832 5.052 4.019 -0.011 0.003 0.011 0.000
27886 4 -1.345 -1.649 -1.302 -0.006 0.001 -0.001 0.000
4517 4 8.196 0.113 9.963 -0.004 -0.003 0.003 0.000
5393 4 5.621 7.350 -1.834 -0.007 -0.001 -0.008 0.000
19722 4 -5.668 3.090 1.018 -0.003 -0.003 0.000 -0.000
9542 4 4.669 -3.991 14.124 0.005 -0.002 0.008 0.000
3 4 1.286 4.156 19.978 0.003 0.001 0.002 -0.000
9124 4 -3.522 6.123 8.690 0.000 -0.006 -0.004 0.000
1293 4 -4.616 9.169 17.181 0.011 0.002 0.011 -0.000
8681 4 -1.601 3.000 -1.441 0.001 0.009 -0.014 0.000
19405 4 3.292 10.354 3.082 0.003 0.007 0.002 -0.000
6559 4 -1.716 7.200 17.239 0.003 0.002 0.013 -0.000
8374 4 -0.781 5.638 -2.358 -0.000 0.014 0.003 -0.000
2243 4 6.251 2.480 16.980 -0.012 -0.006 -0.014 -0.000
18973 4 9.169 11.457 -1.305 0.010 -0.002 -0.010 -0.000
1695 4 6.928 4.801 11.955 0.008 0.007 0.012 -0.000
18978 4 10.203 2.399 -2.695 0.008 0.008 0.002 -0.000
1243 4 1.415 3.220 17.418 -0.000 -0.011 0.002 0.000
7159 4 12.567 5.207 12.487 -0.003 0.005 -0.001 0.000
811 4 4.692 -3.141 8.338 -0.004 -0.002 -0.002 0.000
10775 4 9.815 -0.777 11.858 0.002 -0.003 0.000 -0.000
12393 4 -0.729 2.709 10.877 -0.007 0.004 0.004 -0.000
11098 4 7.497 -1.095 14.960 -0.001 -0.003 -0.006 -0.000
2164 4 2.370 10.811 7.682 -0.003 -0.008 0.002 -0.000
1012 4 13.339 6.944 10.780 -0.009 0.018 -0.001 -0.000
1096 4 7.437 11.137 -3.082 -0.002 0.002 0.001 -0.000
9097 4 4.160 -1.601 13.992 -0.005 0.003 -0.003 0.000
1340 4 10.643 5.168 8.762 0.004 -0.005 0.004 0.000
6550 4 7.364 3.156 10.035 0.011 -0.007 -0.003 0.000
27816 4 0.426 0.554 -0.279 0.015 -0.007 0.001 0.000
949 4 8.148 9.284 8.454 0.006 -0.001 -0.007 -0.000
4520 4 0.143 1.021 2.403 -0.004 -0.003 -0.001 -0.000
2848 4 3.034 2.223 20.415 0.010 -0.005 -0.010 0.000
6673 4 -3.720 10.549 19.585 0.009 0.009 0.001 -0.000
2022 4 11.972 14.384 4.978 -0.003 0.000 -0.003 -0.000
2267 4 9.609 6.821 19.677 -0.000 -0.003 -0.002 0.000
2422 4 5.377 0.390 15.865 -0.001 -0.009 0.001 -0.000
2007 4 -1.819 2.146 13.541 0.007 0.010 0.001 -0.000
9568 4 1.026 -2.743 10.088 0.007 -0.011 0.002 0.000
247 4 13.798 12.006 3.621 -0.007 -0.006 0.000 -0.000
2498 4 13.281 6.793 7.457 -0.005 -0.002 0.002 0.000
4678 4 2.424 12.947 8.579 0.008 0.004 -0.002 0.000
4557 4 0.627 11.728 6.629 0.006 0.003 0.003 0.000
571 4 9.671 -1.905 2.777 0.012 -0.000 -0.003 0.000
5316 4 4.284 12.663 4.623 0.007 -0.011 0.003 -0.000
2459 4 3.207 -1.093 16.788 0.005 -0.001 0.004 -0.000
648 4 8.248 9.605 2.173 -0.003 -0.006 -0.000 0.000
7395 4 -0.201 5.097 17.125 -0.009 0.004 0.008 -0.000
2093 4 8.300 -2.599 12.764 0.000 -0.010 0.009 -0.000
923 4 -1.797 14.670 18.994 0.004 -0.002 -0.002 -0.000
5631 4 2.562 -1.261 9.438 0.004 0.005 -0.007 0.000
1810 4 2.783 11.263 15.694 0.011 -0.006 0.002 0.000
9535 4 -0.012 7.919 4.428 0.000 0.000 0.011 0.000
2101 4 12.569 0.810 16.970 0.000 0.013 -0.010 -0.000
19764 4 -1.763 10.413 2.954 -0.002 -0.006 0.001 0.000
19655 4 -3.184 1.964 -3.593 -0.005 0.002 -0.018 0.000
2860 4 8.525 7.024 0.860 -0.005 -0.002 -0.001 0.000
3260 4 12.837 2.654 18.906 0.005 -0.001 0.002 0.000
2449 4 -3.963 -3.684 15.814 -0.006 0.008 -0.008 -0.000
1455 4 11.968 11.449 5.784 -0.014 -0.006 0.002 -0.000
4461 4 -3.577 10.622 4.828 0.002 -0.006 0.001 -0.000
1286 4 13.291 0.478 2.877 -0.002 -0.006 0.000 0.000
4040 4 0.829 -2.031 0.861 -0.003 -0.006 0.001 -0.000
1693 4 11.877 11.184 8.960 0.009 0.005 -0.008 0.000
496 4 4.196 7.928 1.045 0.001 -0.006 -0.006 0.000
564 4 1.046 0.846 5.211 0.007 -0.008 -0.003 -0.000
406 4 11.368 10.705 -0.258 -0.006 -0.007 -0.010 0.000
23707 4 -1.458 6.894 0.220 0.012 0.009 0.001 -0.000
1220 4 11.075 0.526 13.823 -0.008 0.007 -0.003 -0.000
1827 4 10.272 7.742 8.611 -0.006 -0.001 -0.004 -0.000
2178 4 13.520 6.728 20.119 -0.002 0.003 0.001 -0.000
19699 4 11.356 4.215 -1.781 0.009 -0.007 0.003 -0.000
2215 4 10.547 5.141 4.298 -0.008 -0.004 -0.001 0.000
27574 4 1.044 -2.113 -1.795 0.003 0.009 -0.005 0.000
6552 4 -2.195 14.974 9.711 -0.004 -0.002 0.011 -0.000
10684 4 -0.447 0.602 7.848 0.011 0.000 -0.006 -0.000
13997 4 -1.633 2.288 17.022 0.002 -0.005 -0.000 -0.000
1604 4 4.877 -0.655 20.748 -0.011 -0.003 -0.002 -0.000
18962 4 5.217 8.222 5.682 -0.005 -0.004 0.005 -0.000
449 4 -4.842 7.771 20.710 -0.009 -0.012 0.009 -0.000
3892 4 6.762 13.208 19.896 0.005 0.005 -0.003 0.000
59 4 8.684 4.537 -1.130 -0.010 0.001 -0.002 -0.000
1403 4 4.938 12.398 16.685 -0.006 0.001 -0.004 -0.000
3333 4 11.038 10.785 20.623 -0.007 0.002 0.011 0.000
2133 4 13.943 0.797 9.611 0.000 -0.003 -0.007 -0.000
202 4 3.889 14.751 0.242 0.003 0.010 -0.001 -0.000
173 4 9.515 4.747 11.178 0.006 0.000 -0.002 -0.000
528 4 -2.317 -2.092 14.374 0.008 0.008 -0.002 0.000
19309 4 5.588 9.799 -3.671 0.007 -0.000 0.006 -0.000
13199 4 2.077 -1.579 6.133 -0.002 -0.006 0.003 -0.000
5800 4 12.645 7.228 5.118 -0.011 -0.000 0.008 -0.000
9166 4 -3.009 0.281 -1.730 -0.013 0.005 -0.002 0.000
192 4 -2.714 12.232 0.868 0.006 0.014 0.001 -0.000
5639 4 -1.417 0.290 4.195 -0.000 0.004 0.002 -0.000
844 4 6.032 -0.814 4.055 -0.009 -0.004 0.007 -0.000
4951 4 -4.237 12.301 7.362 0.002 0.006 -0.004 0.000
2579 4 12.247 13.536 17.131 -0.001 -0.001 -0.007 -0.000
659 4 10.099 5.598 13.950 0.004 -0.009 0.005 0.000
3372 4 11.650 0.269 19.419 0.002 0.007 -0.004 0.000
9122 4 3.409 2.224 16.325 0.006 -0.011 -0.005 -0.000
1004 4 3.707 12.227 -1.106 -0.007 0.002 0.003 -0.000
4074 4 3.235 3.904 -0.351 0.003 0.005 0.004 -0.000
23831 4 4.960 9.642 16.277 0.002 0.007 -0.000 -0.000
19647 4 13.727 -0.674 0.332 0.001 -0.006 0.006 0.000
9082 4 2.266 0.298 7.526 -0.002 -0.002 0.004 0.000
140 4 4.720 9.192 11.092 -0.008 0.005 -0.003 -0.000
2577 4 7.789 8.836 16.717 0.006 -0.014 -0.007 0.000
2445 4 -2.926 6.016 19.660 -0.006 0.001 0.007 -0.000
806 4 -4.341 7.052 17.554 0.003 0.011 -0.007 -0.000
8606 4 8.025 -0.974 -1.474 -0.003 0.007 -0.004 -0.000
19771 4 1.829 2.343 8.481 -0.002 0.003 0.000 -0.000
209 4 3.116 11.171 -3.525 0.002 -0.016 -0.010 0.000
6955 4 -1.226 1.648 19.454 0.000 -0.005 -0.012 -0.000
1784 4 9.289 14.144 11.557 -0.003 0.012 0.001 0.000
11565 4 1.728 -1.653 14.545 0.009 -0.011 0.004 0.000
13587 4 -3.786 4.284 4.211 0.007 0.001 -0.009 0.000
8390 4 13.566 1.606 14.953 -0.006 -0.004 0.013 -0.000
9344 4 2.871 -1.039 -0.284 -0.001 -0.010 0.012 0.000
9924 4 0.262 3.623 1.119 -0.004 -0.001 0.022 -0.000
641 4 -3.345 6.860 -2.923 0.008 0.008 0.001 -0.000
2175 4 9.919 12.780 9.329 -0.001 0.001 0.006 0.000
3365 4 7.899 9.987 5.667 -0.003 -0.009 -0.002 -0.000
1292 4 2.617 -0.567 20.364 -0.004 0.000 0.000 0.000
25940 4 9.078 4.152 -4.411 -0.002 -0.008 -0.008 -0.000
27579 4 9.254 -1.159 -3.732 -0.005 -0.002 0.002 -0.000
1367 4 7.713 12.194 17.625 0.008 0.002 -0.003 0.000
2168 4 7.977 0.999 17.033 0.017 -0.009 -0.007 0.000
1002 4 1.370 10.334 1.577 -0.007 0.007 0.005 0.000
1605 4 -0.019 -1.995 7.871 -0.000 0.009 0.003 -0.000
13152 4 0.327 0.364 10.230 0.008 -0.009 0.001 0.000
216 4 10.237 7.786 5.904 -0.004 -0.010 -0.003 -0.000
19773 4 0.502 8.596 -0.212 0.006 0.001 0.009 0.000
9529 4 -4.885 -1.886 6.842 0.002 -0.002 0.004 0.000
19328 4 -2.846 11.041 -1.133 -0.000 -0.001 0.000 0.000
2814 4 1.768 -2.381 18.748 0.000 0.003 0.008 -0.000
15 4 12.388 -1.456 12.594 -0.011 -0.008 -0.001 -0.000
1414 4 1.385 12.073 17.526 -0.003 0.003 -0.001 -0.000
485 4 7.117 13.742 12.751 0.000 0.006 0.008 -0.000
6225 4 -2.799 10.721 8.770 0.001 0.005 0.008 -0.000
8368 4 4.496 -1.945 18.956 0.008 0.009 0.003 0.000
41 4 1.598 0.313 18.340 0.007 -0.005 0.000 -0.000
2010 4 9.950 13.892 7.097 -0.010 0.004 0.006 0.000
1736 4 12.265 13.313 7.808 0.003 0.001 0.005 0.000
8737 4 2.788 -3.567 -0.035 -0.005 -0.007 0.005 0.000
146 4 9.410 5.769 6.489 -0.001 -0.010 0.010 -0.000
445 4 5.919 3.450 5.084 0.008 -0.006 0.004 -0.000
1803 4 9.560 11.302 15.866 -0.002 -0.012 -0.004 0.000
2934 4 10.874 4.362 17.767 -0.009 -0.001 -0.001 0.000
3370 4 4.286 10.153 18.551 -0.009 -0.001 -0.005 0.000
2053 4 7.954 2.823 19.107 0.001 0.007 0.000 0.000
4552 4 -0.597 12.046 4.711 0.009 -0.007 0.015 -0.000
3017 4 6.700 11.451 15.146 -0.016 -0.003 -0.002 0.000
860 4 11.064 -1.549 0.730 0.002 0.004 0.001 0.000
19281 4 4.973 9.780 -1.229 0.001 -0.006 0.000 0.000
10340 4 11.673 -3.753 -0.098 0.008 -0.005 0.000 0.000
5350 4 -0.853 -0.221 18.014 0.005 -0.014 0.001 0.000
175 4 5.730 11.526 11.669 -0.002 0.001 -0.002 0.000
3085 4 9.170 -0.531 18.899 -0.000 -0.010 0.003 0.000
3421 4 10.055 11.366 11.409 -0.014 0.002 -0.001 0.000
4477 4 -3.986 -1.562 4.568 0.008 -0.003 0.012 -0.000
23638 4 -2.655 0.220 6.120 -0.007 0.003 0.012 -0.000
294 4 4.789 13.994 12.014 0.008 -0.003 0.004 -0.000
95 4 13.139 -2.050 7.424 0.006 0.008 0.002 -0.000
2532 4 12.547 3.496 10.302 0.012 0.006 -0.013 0.000
19711 4 10.136 2.506 9.728 0.001 -0.004 -0.008 0.000
8373 4 9.626 -2.800 -1.293 0.007 0.005 0.005 0.000
961 4 -4.585 10.845 2.280 -0.002 0.005 0.001 0.000
9972 4 -0.743 3.172 8.473 0.002 -0.001 0.011 0.000
19413 4 7.460 -1.064 7.080 -0.002 0.004 -0.003 0.000
19734 4 11.470 0.795 1.366 0.004 0.008 0.001 0.000
1005 4 7.788 13.414 15.494 -0.002 -0.000 0.003 0.000
4476 4 -3.900 1.131 18.060 0.006 -0.001 0.008 -0.000
2617 4 12.514 11.082 18.279 -0.004 -0.011 0.005 0.000
562 4 4.800 0.460 -3.801 -0.006 -0.004 -0.004 0.000
19724 4 -1.399 7.663 -4.383 -0.004 -0.002 0.001 -0.000
2121 4 6.383 -2.109 0.165 -0.009 0.005 0.001 0.000
928 4 7.413 12.023 8.048 -0.002 -0.006 -0.008 -0.000
8766 4 -5.154 -0.454 -2.533 -0.003 -0.005 -0.006 0.000
10334 4 -3.238 0.545 14.714 0.003 -0.005 0.005 0.000
6067 4 -3.743 8.504 7.029 -0.005 0.000 -0.013 0.000
170 4 5.329 10.828 3.938 0.000 -0.000 0.004 -0.000
19818 4 6.475 12.240 5.767 0.005 0.005 -0.011 -0.000
537 4 14.506 6.678 -4.341 0.008 -0.005 -0.004 -0.000
9487 4 5.313 10.448 1.186 0.000 0.016 -0.002 -0.000
178 4 11.780 6.394 -3.556 0.008 0.003 -0.006 0.000
18861 4 -2.973 8.972 0.664 0.009 0.001 0.003 -0.000
9884 4 6.034 -2.630 5.731 -0.002 0.000 0.001 0.000
13116 4 -0.951 -3.858 12.028 0.006 0.008 0.000 0.000
12396 4 -0.080 13.324 9.092 -0.008 0.000 0.003 0.000
925 4 -1.060 -0.192 14.934 -0.010 -0.000 -0.002 -0.000
8379 4 -1.053 -4.204 7.610 0.008 0.008 0.004 -0.000
1608 4 -0.657 6.419 11.290 0.004 0.007 0.008 -0.000
1777 4 12.737 3.349 16.569 -0.004 -0.003 0.000 -0.000
848 4 -1.768 0.275 12.197 0.003 0.013 0.002 0.000
2970 4 8.001 11.631 10.239 -0.006 -0.001 -0.003 0.000
19445 4 -3.443 8.697 3.374 0.008 -0.007 -0.002 0.000
9967 4 2.625 -3.112 12.581 0.002 -0.023 -0.007 0.000
10762 4 -0.583 -2.286 19.510 -0.004 -0.015 0.000 -0.000
8733 4 12.708 -3.558 2.339 -0.009 0.010 0.008 0.000
5958 4 -2.975 13.959 11.723 0.003 -0.003 0.015 0.000
469 4 9.708 12.988 2.760 -0.000 0.004 0.012 0.000
19645 4 -1.204 -0.971 1.249 -0.004 0.008 0.006 -0.000
12795 4 3.646 -3.191 4.278 0.003 0.005 0.004 -0.000
6993 4 -0.326 14.041 17.089 0.003 -0.002 -0.001 0.000
1046 4 2.849 13.034 6.034 -0.005 -0.009 -0.002 -0.000
1615 4 8.474 -3.555 0.798 -0.001 0.002 -0.009 -0.000
816 4 12.161 -1.852 -1.395 0.003 0.012 -0.001 0.000
1448 4 -0.533 13.763 -0.265 -0.000 0.004 0.009 0.000
527 4 4.704 1.215 -1.672 -0.005 -0.001 0.005 -0.000
27937 4 3.025 -3.923 9.933 -0.008 0.001 0.000 0.000
203 4 7.145 9.315 11.221 0.010 0.002 -0.013 -0.000
2 4 -3.574 -1.492 0.211 -0.009 -0.010 0.002 0.000
13597 4 12.968 -1.453 3.965 -0.001 0.008 -0.006 0.000
1413 4 13.109 13.978 12.461 0.006 -0.011 -0.002 0.000
852 4 -3.969 6.751 1.149 -0.003 0.001 0.002 0.000
22510 4 -1.099 -1.195 -3.967 0.005 -0.007 0.004 0.000
19648 4 3.218 3.204 -2.883 -0.002 -0.007 0.005 -0.000
1801 4 3.289 11.246 10.836 -0.002 -0.002 -0.000 -0.000
3525 4 -0.108 12.094 12.535 0.006 -0.004 0.011 -0.000
2976 4 13.339 9.573 13.791 -0.005 -0.015 -0.002 0.000
3927 4 13.324 12.289 14.615 -0.006 0.010 0.006 0.000
7718 4 -1.537 12.208 20.461 0.002 0.008 0.002 0.000
13556 4 -2.563 4.122 10.140 0.001 0.004 0.003 -0.000
13156 4 -1.461 8.643 -1.688 -0.000 0.004 -0.005 0.000
2607 4 0.952 13.644 19.496 -0.011 -0.002 0.000 -0.000
8682 4 -0.443 6.124 19.543 -0.003 0.004 0.003 0.000
8731 4 8.191 -3.628 3.839 0.001 0.003 0.004 -0.000
578 4 14.198 9.235 -2.593 -0.008 -0.003 0.002 -0.000
19483 4 -0.876 12.130 -2.032 0.008 -0.005 -0.005 -0.000
1406 4 10.520 2.513 20.650 0.003 -0.005 0.000 0.000
19311 4 14.083 -4.550 -2.512 -0.002 -0.007 0.001 0.000
5 4 -3.246 -4.149 4.370 0.005 -0.003 0.010 0.000
27563 4 -2.664 2.457 6.276 -0.003 -0.006 -0.004 0.000
2163 4 12.342 4.464 20.225 -0.010 0.002 0.009 -0.000
22557 4 -0.623 10.033 -4.094 -0.002 0.002 -0.007 0.000
606 4 -2.716 14.002 -0.851 0.010 0.007 -0.004 0.000
5753 4 -4.701 12.925 11.489 0.007 -0.003 0.002 -0.000
27979 4 5.140 -3.851 -2.239 0.004 -0.000 -0.003 0.000
5880 4 -3.620 13.201 19.209 0.006 0.005 -0.012 0.000
11491 4 -1.731 4.192 20.461 -0.008 0.006 -0.011 0.000
6997 4 5.896 12.464 2.009 0.020 -0.007 -0.004 0.000
1221 4 9.584 8.078 15.227 0.003 0.002 -0.006 0.000
10322 4 -1.619 -2.229 10.505 0.005 -0.010 0.004 0.000
88 4 -2.455 -1.238 8.096 0.003 -0.002 -0.005 0.000
2047 4 7.650 -0.217 20.917 0.020 -0.006 -0.011 0.000
18980 4 9.589 11.021 1.320 -0.001 0.003 -0.004 0.000
412 4 -2.126 1.376 0.666 0.002 0.005 0.002 0.000
855 4 7.251 -3.515 -2.027 -0.006 -0.007 -0.003 0.000
489 4 -1.701 2.763 3.808 -0.001 0.002 -0.005 -0.000
5668 4 -3.421 13.037 9.445 0.009 0.016 0.006 0.000
1715 4 14.414 11.839 9.622 0.008 0.007 -0.004 0.000
5712 4 -4.576 -0.946 9.802 -0.003 -0.003 0.004 0.000
6238 4 11.365 9.124 19.312 -0.003 -0.000 -0.005 -0.000
19419 4 7.231 1.265 -1.593 -0.000 0.007 0.015 -0.000
2928 4 10.324 0.164 21.174 0.009 0.003 0.008 -0.000
24248 4 9.515 -3.462 18.649 0.005 -0.002 0.004 0.000
19538 4 1.400 13.215 -3.036 0.002 0.001 0.001 -0.000
8296 4 11.619 -3.888 8.479 0.001 0.001 -0.006 -0.000
18822 4 10.539 7.947 -1.055 0.010 0.002 -0.004 0.000
8786 4 13.629 -2.036 -3.630 -0.003 0.005 -0.014 0.000
2076 4 11.969 9.001 11.370 -0.002 0.007 -0.001 0.000
5750 4 -3.431 2.736 2.379 -0.005 0.001 0.001 0.000
19504 4 5.170 13.417 -3.429 0.005 -0.002 0.002 -0.000
1044 4 -4.440 4.788 -2.434 -0.000 0.007 -0.002 0.000
1807 4 1.491 7.460 18.105 0.004 -0.002 0.002 0.000
124 4 -3.892 1.191 4.502 -0.001 -0.002 0.009 -0.000
10296 4 3.171 -3.554 15.898 -0.004 -0.004 -0.009 -0.000
6152 4 1.594 12.363 -0.466 -0.010 -0.006 -0.003 0.000
11089 4 3.495 -2.865 21.131 0.003 0.007 0.010 0.000
6515 4 5.673 1.979 20.062 0.009 -0.005 0.005 0.000
23799 4 7.535 5.912 -2.703 0.011 0.006 -0.002 0.000
1263 4 13.762 -3.308 12.118 0.001 0.003 -0.004 0.000
8053 4 3.461 14.598 2.946 0.006 0.012 0.006 -0.000
9125 4 -2.367 -2.518 6.255 -0.005 0.008 -0.004 -0.000
5674 4 -3.276 6.745 10.946 0.005 0.010 0.010 -0.000
1607 4 10.603 -3.408 11.696 -0.002 -0.003 -0.002 0.000
2488 4 1.134 -3.875 21.052 0.009 -0.003 0.001 -0.000
18934 4 10.602 13.139 0.088 0.002 -0.005 0.001 -0.000
16297 4 4.807 11.088 21.006 -0.005 0.002 0.008 0.000
4957 4 2.555 13.549 15.242 -0.013 -0.004 -0.012 -0.000
18947 4 14.427 13.630 -0.218 0.001 0.010 0.004 -0.000
2420 4 9.013 -4.446 9.390 0.012 -0.005 -0.002 0.000
5076 4 -0.839 14.344 -2.928 0.002 -0.001 -0.004 0.000
660 4 12.527 14.478 -1.517 0.006 0.007 0.005 0.000
1208 4 10.970 7.575 3.369 0.001 -0.000 -0.005 0.000
9161 4 -0.722 -4.133 1.579 0.003 -0.004 0.006 -0.000
10283 4 -0.234 -0.131 20.810 -0.002 -0.003 -0.000 0.000
16218 4 13.745 0.643 20.555 -0.001 -0.006 -0.004 -0.000
1324 4 0.307 -3.916 14.234 0.013 -0.002 0.006 0.000
1683 4 -4.082 3.428 18.984 -0.001 -0.013 -0.008 -0.000
19613 4 11.446 0.225 -2.918 -0.003 0.020 0.001 -0.000
1249 4 12.354 9.577 4.617 0.002 0.001 0.011 -0.000
217 4 12.285 -1.879 10.119 0.011 0.007 -0.002 -0.000
6029 4 -3.527 2.937 11.836 0.008 -0.006 -0.008 0.000
12360 4 0.542 -1.414 4.004 0.005 0.003 0.002 -0.000
504 4 11.599 -2.204 20.083 0.000 0.006 0.007 -0.000
13594 4 -4.931 -1.025 18.854 0.002 -0.003 -0.005 0.000
1009 4 2.582 13.987 11.205 0.009 -0.005 0.002 0.000
3401 4 -4.220 11.878 21.849 -0.001 0.001 0.003 -0.000
1659 4 12.281 11.338 12.635 0.004 0.002 -0.001 -0.000
1688 4 3.795 13.198 19.593 -0.002 -0.004 -0.002 -0.000
3801 4 6.905 -2.821 19.440 -0.001 0.004 0.002 0.000
4556 4 -5.359 -2.240 12.946 -0.004 -0.002 -0.005 -0.000
208 4 9.927 8.513 -3.664 -0.007 0.002 0.006 -0.000
4547 4 -3.841 9.396 11.236 -0.003 -0.001 0.007 -0.000
5838 4 10.013 13.863 16.107 -0.002 0.003 0.006 0.000
27921 4 -3.524 -2.151 -3.411 -0.003 -0.007 0.005 0.000
19225 4 11.035 11.472 -3.114 -0.006 -0.001 -0.006 0.000
19738 4 2.115 0.983 -1.928 -0.001 -0.002 -0.001 0.000
1011 4 -1.550 13.604 13.627 0.006 -0.002 0.007 0.000
1694 4 11.467 -4.496 20.271 -0.009 -0.005 -0.004 0.000
23399 4 -4.408 14.618 7.339 0.003 -0.002 0.008 -0.000
9921 4 2.009 -3.611 7.546 0.010 0.006 0.005 0.000
18852 4 5.803 3.142 -3.301 -0.006 -0.004 0.001 -0.000
2245 4 11.173 13.307 21.419 -0.004 -0.005 0.006 -0.000
87 4 1.517 -4.246 2.569 -0.001 0.003 -0.000 -0.000
5359 4 -2.318 1.294 9.553 0.000 -0.002 0.001 -0.000
20156 4 -5.253 5.242 20.340 0.005 -0.003 0.002 0.000
1246 4 -4.522 0.240 7.502 0.005 0.001 0.006 -0.000
27963 4 -4.940 0.249 1.660 -0.004 0.003 -0.002 -0.000
31989 4 -0.853 0.894 -2.387 -0.011 0.002 0.000 0.000
12320 4 -2.791 -3.763 -1.350 0.002 -0.002 0.001 -0.000
8330 4 11.162 -2.489 -3.457 -0.006 -0.008 0.003 0.000
1205 4 -2.643 13.784 5.291 0.002 -0.016 -0.001 -0.000
6518 4 -5.124 6.615 12.813 -0.004 -0.005 -0.002 0.000
984 4 13.902 11.716 -1.533 0.006 0.006 -0.003 0.000
26701 4 8.908 -3.408 -4.643 0.002 0.001 -0.009 -0.000
132 4 -5.660 -3.524 -2.662 0.007 -0.002 -0.007 0.000
1487 4 3.629 15.166 6.880 -0.008 0.011 -0.003 0.000
1730 4 14.205 2.666 6.639 0.005 -0.005 -0.001 0.000
2419 4 2.681 12.194 20.973 0.010 0.002 0.001 -0.000
19210 4 5.566 -2.455 -4.460 0.012 0.005 -0.008 0.000
4195 4 -3.899 4.875 -0.326 -0.001 0.000 -0.002 -0.000
2641 4 2.471 9.049 19.672 -0.000 -0.007 -0.005 -0.000
18845 4 2.086 -4.713 -2.422 -0.005 -0.003 -0.004 0.000
191 4 14.112 -0.280 -1.894 -0.005 0.002 -0.001 -0.000
3256 4 7.038 9.502 21.404 -0.004 0.000 0.003 -0.000
971 4 13.515 12.211 20.895 -0.007 -0.001 -0.006 -0.000
19667 4 12.189 4.414 6.520 -0.005 0.000 0.002 0.000
1337 4 7.929 -3.519 14.781 -0.012 0.003 -0.017 0.000
18089 4 13.937 0.690 -4.049 -0.006 -0.013 0.006 -0.000
2095 4 13.791 9.268 19.628 0.010 -0.000 -0.005 0.000
889 4 8.256 14.609 8.793 -0.004 0.006 0.008 0.000
10328 4 11.193 -4.689 13.534 0.003 -0.005 -0.006 0.000
19304 4 3.140 -2.046 -3.253 0.004 -0.006 -0.004 0.000
3003 4 -3.236 2.067 20.609 0.009 -0.006 0.006 0.000
1782 4 14.091 11.791 7.251 0.003 0.001 0.010 0.000
23635 4 -5.671 2.699 5.987 -0.006 0.006 0.008 0.000
27967 4 -5.637 -1.623 -4.686 -0.004 0.001 -0.005 -0.000
1374 4 13.916 7.168 13.709 -0.011 -0.004 0.006 0.000
3132 4 -5.189 4.901 15.093 0.003 0.005 0.004 -0.000
214 4 12.637 5.185 2.650 -0.010 0.001 -0.007 0.000
655 4 8.874 14.839 4.256 0.002 0.004 0.005 0.000
2609 4 -5.474 10.697 12.937 0.010 0.007 -0.007 -0.000
4235 4 -5.674 4.957 8.289 -0.002 -0.004 0.003 -0.000
4038 4 -4.273 3.330 16.598 -0.003 0.006 0.000 -0.000
31200 4 -0.846 3.416 -3.911 -0.004 -0.006 -0.003 -0.000
4439 4 -3.471 -3.343 8.535 0.009 0.003 0.011 -0.000
19369 4 -4.844 9.110 -0.958 -0.005 -0.003 -0.001 0.000
4553 4 -5.318 7.833 -4.653 0.002 0.001 -0.006 0.000
19761 4 -3.489 14.291 -3.138 0.010 0.009 -0.004 -0.000
2446 4 2.498 14.280 17.730 -0.004 -0.007 0.006 0.000
1829 4 13.376 9.638 7.728 -0.007 -0.004 -0.004 -0.000
2176 4 -1.677 9.822 21.587 -0.005 -0.008 -0.000 -0.000