ITEM: TIMESTEP
5000
ITEM: NUMBER OF ATOMS
32000
ITEM: BOX BOUNDS pp pp pp
-3.924134 74.404134
-3.862367 74.342367
-4.013576 74.493576
ITEM: ATOMS id type x y z vx vy vz q
10 4 3.985 -1.744 -2.742 0.008 0.003 -0.008 0.000
18 4 9.474 -2.921 1.054 -0.002 0.000 -0.002 -0.000
43 4 -0.939 3.922 -1.510 -0.003 -0.000 0.006 0.000
46 4 0.608 1.925 -3.010 -0.003 -0.006 -0.009 -0.000
47 4 1.424 -0.859 -3.414 -0.002 0.001 -0.001 -0.000
50 4 5.268 4.788 -2.771 -0.006 -0.002 0.006 -0.000
54 4 5.908 0.737 -3.542 0.001 -0.000 -0.011 -0.000
58 4 11.787 -0.073 -2.888 -0.002 0.014 0.006 -0.000
59 4 12.372 2.296 -1.724 0.003 -0.003 0.002 0.000
83 4 -2.957 4.766 -2.877 -0.001 -0.003 -0.005 -0.000
86 4 -1.214 6.439 -1.701 -0.011 -0.006 0.001 0.000
87 4 1.258 4.658 -2.374 0.001 0.008 -0.004 -0.000
90 4 3.165 6.064 -1.901 0.010 -0.002 0.003 0.000
91 4 5.787 5.412 -0.472 0.010 -0.010 -0.002 -0.000
95 4 10.166 3.598 -2.469 -0.002 0.013 -0.007 -0.000
98 4 10.433 8.249 -1.969 -0.005 0.004 0.002 -0.000
99 4 12.169 5.325 -1.470 0.007 -0.002 0.004 -0.000
123 4 -1.597 9.188 -1.573 0.004 0.005 0.009 0.000
126 4 -1.262 11.503 -0.842 -0.008 0.008 -0.007 -0.000
127 4 0.759 10.070 -0.874 -0.000 -0.002 0.003 0.000
130 4 4.334 9.895 -2.474 0.004 -0.002 0.003 -0.000
131 4 5.508 7.795 -2.130 -0.003 -0.001 -0.006 -0.000
135 4 10.151 10.530 -2.957 0.005 0.015 -0.001 0.000
138 4 11.954 10.824 -1.533 0.002 0.000 0.006 -0.000
139 4 13.395 8.426 -1.651 0.001 0.006 -0.005 -0.000
167 4 4.969 14.641 -2.982 -0.006 -0.000 0.005 0.000
171 4 4.000 11.840 -1.152 -0.008 -0.003 -0.006 0.000
174 4 7.733 14.100 -1.995 0.004 -0.008 0.001 -0.000
175 4 9.814 12.621 -1.876 0.000 -0.008 -0.003 0.000
178 4 12.280 13.477 -2.067 0.000 -0.006 0.002 -0.000
179 4 14.184 12.921 -2.803 -0.004 0.006 0.002 0.000
406 4 3.238 1.106 2.850 -0.004 0.005 -0.002 0.000
410 4 1.293 -1.699 -1.272 -0.007 -0.001 -0.005 -0.000
414 4 7.813 -1.650 -0.138 0.001 -0.004 -0.002 -0.000
418 4 9.697 -0.044 0.557 0.003 0.001 -0.003 0.000
420 4 12.554 -1.716 -0.896 -0.002 -0.015 -0.003 -0.000
444 4 -0.891 1.660 1.010 0.000 0.008 -0.002 0.000
445 4 0.113 0.474 -1.050 0.001 -0.004 -0.006 -0.000
446 4 0.594 3.197 2.224 -0.002 0.005 0.002 0.000
447 4 3.958 1.929 1.071 -0.006 -0.004 0.005 0.000
448 4 1.807 0.299 1.064 -0.004 0.001 0.001 -0.000
449 4 3.486 -2.078 2.109 0.000 0.012 0.004 0.000
450 4 5.373 -0.548 2.144 -0.012 -0.002 0.004 0.000
452 4 2.706 0.559 -1.979 -0.010 -0.002 -0.003 -0.000
453 4 10.081 -1.612 -1.418 0.002 0.004 -0.000 -0.000
454 4 7.184 0.708 0.829 -0.006 0.005 0.007 0.000
455 4 11.513 1.680 2.352 -0.003 -0.005 0.004 0.000
456 4 9.989 2.730 0.163 0.010 -0.002 -0.006 0.000
457 4 12.250 0.468 -0.017 -0.002 -0.001 -0.003 -0.000
458 4 11.706 -1.665 1.607 -0.007 0.004 -0.004 0.000
459 4 14.731 -0.093 1.293 -0.001 0.006 -0.013 -0.000
460 4 13.950 2.394 0.619 0.001 0.005 -0.005 -0.000
483 4 -2.450 6.671 0.170 -0.003 0.004 -0.003 0.000
484 4 -3.593 7.541 -2.115 -0.002 0.001 0.004 0.000
485 4 1.375 6.205 -0.363 0.004 0.002 -0.003 0.000
486 4 -0.101 9.187 3.370 -0.001 -0.003 -0.011 0.000
487 4 1.961 7.992 1.533 0.011 -0.002 0.003 0.000
488 4 2.314 8.373 -1.786 0.009 0.001 -0.007 -0.000
489 4 3.465 2.854 -2.431 -0.007 -0.004 0.003 0.000
490 4 3.958 7.260 0.110 -0.004 0.005 -0.008 -0.000
491 4 5.417 2.407 -0.810 -0.007 -0.009 0.000 0.000
492 4 3.360 3.941 -0.369 -0.003 -0.007 -0.006 -0.000
493 4 7.577 4.058 -1.625 -0.002 -0.013 0.000 -0.000
494 4 8.159 4.946 0.948 0.010 0.006 -0.006 -0.000
495 4 8.759 2.239 2.401 -0.004 -0.000 0.012 0.000
496 4 7.643 6.411 -2.126 0.006 0.002 -0.011 -0.000
497 4 10.683 4.638 1.376 -0.006 -0.001 -0.008 0.000
498 4 9.752 5.431 -0.968 -0.002 -0.006 0.007 -0.000
499 4 14.068 4.654 1.903 -0.006 -0.006 -0.005 -0.000
500 4 11.896 7.216 0.121 -0.012 0.015 -0.004 -0.000
523 4 -3.447 7.654 2.685 -0.009 0.005 0.001 -0.000
525 4 -0.126 7.791 0.322 0.006 -0.003 -0.001 -0.000
526 4 -2.052 9.656 1.067 0.003 0.007 -0.003 0.000
527 4 3.263 10.372 3.248 -0.003 0.000 -0.003 0.000
528 4 0.387 10.223 1.505 -0.011 0.005 0.000 -0.000
529 4 3.176 9.944 0.089 0.008 -0.005 0.005 0.000
530 4 2.778 12.090 1.147 -0.009 0.018 0.003 0.000
531 4 5.110 8.694 2.025 0.005 -0.006 0.000 -0.000
532 4 5.690 9.944 -0.387 -0.003 -0.002 0.007 0.000
533 4 6.943 7.591 0.142 -0.000 0.002 -0.007 -0.000
534 4 7.523 10.135 1.192 0.006 -0.002 -0.007 0.000
535 4 9.693 7.088 0.680 -0.005 0.001 0.003 0.000
536 4 8.171 9.134 -1.425 -0.008 0.003 0.000 -0.000
537 4 10.428 9.907 -0.010 -0.013 0.006 -0.007 0.000
538 4 12.692 10.960 1.077 0.002 -0.003 0.000 -0.000
539 4 13.690 8.752 0.783 0.000 0.001 -0.005 0.000
540 4 14.493 10.774 -1.001 -0.004 0.003 0.000 0.000
563 4 -1.970 11.935 1.621 0.000 -0.001 0.001 0.000
564 4 -1.811 13.951 -0.263 0.001 0.010 0.002 0.000
565 4 0.521 12.513 0.292 -0.001 -0.002 0.003 0.000
566 4 -0.429 13.971 2.243 0.006 0.003 -0.006 0.000
567 4 1.042 12.078 2.816 -0.010 -0.001 -0.003 0.000
568 4 2.333 13.936 -0.994 0.009 0.007 0.009 0.000
569 4 4.084 15.139 0.052 -0.002 0.001 0.012 -0.000
570 4 1.808 14.004 1.443 -0.006 0.002 0.004 -0.000
571 4 4.868 11.382 1.681 0.001 0.004 0.012 0.000
572 4 5.754 13.450 0.226 0.005 0.010 -0.007 0.000
573 4 7.719 11.848 -0.380 -0.006 0.004 0.006 0.000
574 4 8.050 13.999 1.737 -0.006 0.016 0.001 -0.000
575 4 9.691 11.364 2.146 0.003 -0.005 -0.008 -0.000
576 4 9.609 13.767 -0.066 0.000 -0.011 0.009 -0.000
577 4 12.034 13.125 0.183 -0.002 0.007 -0.006 0.000
578 4 12.107 13.990 2.439 0.005 -0.007 0.003 0.000
579 4 14.822 11.803 1.595 -0.000 0.008 -0.002 0.000
580 4 14.543 14.110 -0.196 0.007 0.006 -0.004 0.000
804 4 0.098 0.991 3.130 -0.005 -0.005 0.009 -0.000
810 4 5.667 3.713 5.697 -0.001 0.002 -0.016 -0.000
814 4 8.603 -3.035 7.447 0.005 -0.002 -0.007 -0.000
816 4 8.963 -1.185 5.592 0.010 0.009 0.002 -0.000
818 4 11.184 -2.946 6.218 0.006 0.004 -0.001 -0.000
820 4 14.802 -2.158 2.795 0.010 0.005 0.000 0.000
843 4 -2.243 -1.837 5.064 0.001 -0.016 0.001 -0.000
844 4 -0.758 4.731 0.755 -0.008 -0.008 -0.007 -0.000
845 4 -1.338 2.873 3.961 0.012 -0.001 0.005 -0.000
846 4 2.090 2.831 5.122 -0.009 0.001 0.004 0.000
847 4 1.845 0.465 5.553 0.009 0.003 0.009 0.000
848 4 1.767 5.583 2.161 -0.007 0.005 -0.003 0.000
849 4 4.080 -0.636 4.439 -0.003 -0.008 -0.000 0.000
850 4 3.747 3.416 6.916 -0.005 -0.007 -0.009 -0.000
851 4 6.431 -2.442 5.425 -0.003 0.001 0.007 -0.000
852 4 6.334 3.029 2.007 -0.008 0.010 -0.014 0.000
853 4 6.843 -0.481 4.041 0.001 0.009 -0.003 0.000
854 4 9.443 3.046 7.664 0.003 0.000 0.004 -0.000
855 4 11.431 -0.214 5.379 -0.004 0.011 -0.004 -0.000
856 4 9.148 -0.192 3.384 -0.005 0.003 0.004 0.000
857 4 13.243 0.064 3.274 -0.004 0.001 -0.010 -0.000
858 4 13.680 1.114 5.696 -0.010 -0.007 -0.004 -0.000
859 4 13.391 -1.479 5.431 -0.009 -0.010 0.001 -0.000
860 4 13.015 2.504 4.032 -0.000 0.002 -0.006 -0.000
883 4 -0.238 2.806 6.142 0.003 -0.007 0.012 0.000
884 4 -3.160 5.103 3.536 -0.002 0.005 -0.006 -0.000
885 4 0.740 4.914 4.529 0.008 0.002 0.000 0.000
886 4 -2.047 7.508 4.771 -0.012 0.007 -0.005 -0.000
887 4 3.947 4.456 4.084 0.012 0.000 -0.003 -0.000
888 4 -0.977 5.923 2.757 -0.002 -0.005 -0.002 0.000
889 4 1.053 7.307 3.824 0.003 0.009 -0.002 -0.000
890 4 4.427 6.285 5.438 -0.004 0.003 0.003 0.000
891 4 5.157 2.144 3.935 -0.002 0.004 0.003 0.000
892 4 3.837 7.126 3.355 0.009 0.004 0.006 -0.000
893 4 4.271 4.606 1.683 -0.000 -0.004 0.005 -0.000
894 4 7.550 4.534 3.425 -0.000 -0.021 0.005 0.000
895 4 7.187 1.924 4.724 0.004 -0.007 -0.003 -0.000
896 4 9.434 5.409 3.539 -0.008 0.004 0.019 -0.000
897 4 10.278 3.159 4.281 0.003 0.000 0.002 0.000
898 4 12.561 5.202 4.607 0.004 0.012 0.007 -0.000
899 4 14.422 3.578 6.620 -0.003 0.002 0.001 0.000
900 4 14.440 7.274 2.429 0.003 -0.010 -0.000 0.000
923 4 -2.576 8.466 7.135 -0.006 0.007 -0.013 0.000
924 4 -2.394 10.130 3.977 -0.011 -0.007 0.002 -0.000
926 4 -0.237 9.146 5.775 0.003 -0.003 0.003 -0.000
927 4 1.123 6.838 6.354 -0.000 -0.002 -0.002 -0.000
928 4 1.322 11.106 4.991 0.007 0.008 -0.005 -0.000
929 4 2.342 8.730 5.604 0.007 0.005 -0.001 0.000
930 4 4.436 10.840 5.591 -0.001 0.007 -0.007 -0.000
931 4 5.389 8.526 5.299 0.003 0.004 0.006 0.000
932 4 5.783 10.719 3.565 0.001 -0.013 -0.002 0.000
933 4 7.676 7.071 2.405 -0.010 -0.008 0.007 -0.000
934 4 8.971 8.923 4.597 0.003 -0.002 0.001 -0.000
935 4 10.510 6.796 5.316 0.001 -0.003 0.004 -0.000
936 4 11.294 8.932 2.437 0.011 0.001 -0.005 -0.000
937 4 11.528 6.557 3.041 0.007 -0.003 0.003 -0.000
938 4 11.777 9.256 5.646 0.004 0.001 -0.003 -0.000
939 4 13.426 7.055 6.170 -0.000 0.005 0.003 -0.000
940 4 13.473 10.246 3.608 0.010 -0.002 -0.006 0.000
963 4 -2.767 10.865 6.115 0.001 -0.005 0.003 0.000
964 4 -2.477 13.933 3.111 0.004 -0.004 -0.002 0.000
965 4 -1.229 12.833 4.791 0.007 -0.006 -0.001 0.000
966 4 0.644 15.308 6.456 -0.002 0.015 -0.009 0.000
967 4 2.908 12.854 5.721 -0.003 0.014 -0.011 -0.000
968 4 1.810 14.365 4.044 0.001 -0.004 -0.003 -0.000
969 4 3.398 12.778 3.199 0.001 0.012 0.000 -0.000
970 4 3.577 14.928 6.754 -0.001 0.004 0.002 -0.000
971 4 5.843 13.063 5.721 0.013 0.001 0.010 0.000
972 4 6.002 13.587 3.022 0.006 0.003 -0.003 -0.000
973 4 7.829 12.680 4.142 0.010 0.018 0.003 -0.000
974 4 8.161 13.116 6.629 -0.009 0.002 0.007 -0.000
975 4 9.360 10.600 6.670 -0.000 -0.008 0.008 0.000
976 4 9.790 14.663 3.536 -0.002 0.011 0.005 -0.000
977 4 12.167 11.864 3.446 -0.012 0.009 -0.003 0.000
978 4 12.486 14.062 5.192 0.002 0.003 -0.003 0.000
979 4 12.365 11.761 6.231 -0.003 0.002 -0.005 0.000
980 4 14.808 13.569 3.760 0.005 -0.000 0.003 -0.000
1206 4 -0.061 -2.193 8.034 -0.012 0.000 -0.004 0.000
1208 4 2.018 -1.369 7.446 0.000 0.004 0.000 0.000
1210 4 1.042 -0.555 10.259 -0.001 0.010 0.006 0.000
1212 4 5.625 -2.376 9.107 0.009 -0.007 -0.005 0.000
1214 4 8.640 -0.693 10.247 0.001 -0.009 -0.003 0.000
1216 4 10.257 0.576 7.968 0.005 -0.006 -0.009 -0.000
1218 4 11.788 -1.641 10.230 0.001 0.006 -0.000 -0.000
1220 4 13.102 -2.464 8.401 0.005 0.003 0.005 -0.000
1244 4 -0.172 0.330 7.676 -0.004 0.000 -0.001 0.000
1245 4 1.463 1.859 10.242 0.004 -0.002 -0.005 0.000
1246 4 0.006 3.114 8.666 0.001 0.005 0.009 -0.000
1247 4 3.961 -0.044 9.400 -0.002 0.017 0.010 0.000
1248 4 2.218 1.493 7.900 -0.001 0.007 0.007 -0.000
1249 4 9.612 1.387 5.920 0.011 0.005 0.005 -0.000
1250 4 6.723 3.171 8.707 0.004 -0.001 0.001 -0.000
1251 4 6.656 0.835 9.461 0.006 0.002 0.002 -0.000
1252 4 7.169 1.477 7.040 0.006 -0.010 -0.011 0.000
1253 4 6.507 -0.900 7.496 -0.008 0.004 0.002 -0.000
1254 4 8.944 2.063 10.027 0.011 0.003 -0.007 0.000
1255 4 12.503 -0.563 7.859 -0.003 -0.009 -0.000 0.000
1256 4 11.961 2.433 6.176 -0.004 -0.008 -0.005 -0.000
1257 4 12.510 1.146 10.346 -0.010 0.005 0.008 0.000
1258 4 11.503 2.804 8.570 0.004 -0.001 -0.004 0.000
1259 4 14.281 -0.758 10.652 -0.009 0.007 0.008 -0.000
1260 4 13.869 1.579 8.226 0.010 -0.002 -0.001 0.000
1283 4 -0.748 5.629 8.115 0.005 -0.003 0.006 0.000
1284 4 -3.287 5.050 7.835 -0.005 -0.005 0.002 0.000
1285 4 1.355 4.635 7.141 0.006 0.004 0.020 0.000
1286 4 0.423 6.556 10.294 0.003 0.001 -0.011 -0.000
1287 4 2.462 4.051 9.809 -0.009 -0.008 0.011 -0.000
1288 4 3.686 6.220 7.831 -0.018 0.021 0.001 -0.000
1289 4 4.334 2.676 9.916 0.011 -0.013 -0.003 -0.000
1290 4 3.116 6.368 10.415 0.001 0.001 0.008 -0.000
1291 4 5.195 5.257 9.594 0.005 -0.014 0.010 -0.000
1292 4 6.044 7.606 8.264 -0.002 0.002 -0.001 0.000
1293 4 5.791 5.219 7.550 -0.004 0.006 0.001 -0.000
1294 4 5.458 7.552 11.143 0.001 0.000 0.001 0.000
1295 4 8.648 4.790 9.729 0.005 0.004 -0.008 0.000
1296 4 8.472 4.286 5.758 -0.005 0.006 0.003 -0.000
1297 4 13.460 3.947 9.179 0.003 -0.002 0.010 0.000
1298 4 10.708 5.536 8.726 0.004 -0.002 -0.001 -0.000
1299 4 15.221 3.107 11.142 -0.012 -0.007 -0.003 -0.000
1300 4 14.830 5.533 8.136 0.004 -0.006 0.005 -0.000
1323 4 -2.887 7.177 9.809 0.003 -0.006 0.002 0.000
1324 4 -0.941 10.715 8.046 0.009 0.008 -0.010 -0.000
1325 4 -0.070 8.014 8.195 -0.007 0.002 -0.002 0.000
1326 4 0.679 12.228 8.661 -0.001 0.015 0.002 0.000
1327 4 2.408 8.798 10.016 0.002 0.000 -0.001 0.000
1328 4 1.869 9.917 7.591 -0.006 -0.001 -0.014 -0.000
1329 4 4.419 9.117 8.100 0.008 0.003 0.003 0.000
1330 4 3.131 11.232 9.655 0.006 0.006 -0.007 0.000
1331 4 6.209 10.680 7.654 0.016 0.005 0.005 0.000
1332 4 7.282 10.601 5.382 -0.001 -0.007 -0.008 0.000
1333 4 7.083 6.400 5.309 0.006 -0.001 -0.000 -0.000
1334 4 7.142 9.165 9.747 0.003 -0.004 -0.004 0.000
1335 4 8.394 6.047 7.419 -0.000 0.001 -0.000 0.000
1336 4 7.907 8.547 6.926 0.001 -0.006 -0.008 -0.000
1337 4 10.969 4.655 6.678 -0.003 0.007 0.008 -0.000
1338 4 10.317 8.095 7.022 -0.003 -0.007 -0.011 -0.000
1339 4 12.858 6.742 8.651 0.006 -0.003 0.002 -0.000
1340 4 13.528 9.572 8.289 -0.010 -0.003 -0.001 0.000
1363 4 -2.026 12.192 10.540 -0.005 0.002 -0.002 0.000
1364 4 -2.077 12.977 8.153 0.009 -0.011 0.000 0.000
1365 4 0.517 13.158 6.379 -0.003 0.014 0.001 -0.000
1366 4 0.048 14.071 10.395 0.005 0.007 0.000 0.000
1367 4 1.814 12.987 10.797 0.002 0.005 -0.009 -0.000
1368 4 1.913 14.084 8.450 0.005 -0.002 -0.008 -0.000
1369 4 4.203 12.165 8.002 0.008 -0.000 0.002 -0.000
1370 4 3.977 13.617 10.311 0.002 -0.007 0.011 0.000
1371 4 5.756 11.805 10.219 0.014 -0.003 -0.006 -0.000
1372 4 5.900 14.048 8.626 0.002 0.006 -0.000 -0.000
1373 4 8.064 11.772 9.270 0.012 -0.002 0.011 0.000
1374 4 8.398 13.897 10.167 0.002 0.009 0.006 -0.000
1375 4 9.583 9.337 8.817 0.001 -0.008 -0.002 0.000
1376 4 9.686 13.410 8.276 0.009 0.005 -0.007 -0.000
1377 4 11.351 11.002 8.702 -0.007 -0.005 0.007 -0.000
1378 4 11.951 13.358 8.556 0.005 -0.001 -0.007 0.000
1379 4 14.416 11.605 9.240 -0.008 -0.002 -0.002 -0.000
1380 4 14.151 13.441 7.354 0.008 -0.006 0.004 0.000
1604 4 -3.231 -2.248 12.327 0.001 0.004 -0.008 -0.000
1606 4 -1.105 -2.843 13.785 -0.002 0.009 -0.001 -0.000
1608 4 1.235 -1.584 12.939 -0.009 0.008 0.007 -0.000
1610 4 4.403 -1.051 13.586 0.005 -0.001 0.004 -0.000
1612 4 6.230 -0.162 12.210 -0.009 0.003 0.010 -0.000
1614 4 8.437 -1.958 14.378 0.003 0.000 0.001 -0.000
1616 4 10.097 -2.171 12.167 0.002 0.006 0.005 0.000
1618 4 12.053 -0.872 13.098 -0.006 -0.004 -0.002 0.000
1620 4 14.294 -1.880 12.844 -0.003 0.004 -0.006 -0.000
1643 4 -2.821 -0.063 13.936 -0.012 -0.003 -0.001 -0.000
1644 4 -3.296 2.552 11.950 -0.001 -0.006 -0.004 -0.000
1645 4 0.075 0.430 12.602 0.005 -0.000 -0.002 0.000
1646 4 -0.707 2.114 14.301 -0.004 0.005 0.011 -0.000
1647 4 2.358 0.289 14.357 0.000 0.000 -0.005 0.000
1648 4 1.673 2.631 13.232 -0.000 0.003 0.003 0.000
1649 4 2.991 0.730 11.850 0.001 -0.005 0.005 0.000
1650 4 4.603 1.648 13.951 -0.005 0.004 -0.002 -0.000
1651 4 6.880 0.556 14.271 0.003 0.003 0.001 -0.000
1652 4 6.316 2.327 11.714 0.004 0.002 -0.003 0.000
1653 4 8.345 1.090 12.643 0.005 -0.002 0.004 0.000
1654 4 7.469 2.898 13.919 0.003 -0.011 0.002 -0.000
1655 4 9.925 -0.169 13.962 0.005 -0.010 -0.001 -0.000
1656 4 8.650 3.551 12.001 -0.007 0.006 0.008 0.000
1657 4 10.569 0.700 11.410 0.000 -0.002 -0.005 0.000
1658 4 12.202 1.959 13.865 -0.006 0.002 0.004 -0.000
1659 4 14.058 0.039 14.336 0.012 0.000 -0.017 -0.000
1660 4 13.858 1.343 12.337 0.011 -0.000 0.003 0.000
1683 4 -2.402 3.969 14.245 -0.009 0.003 0.007 -0.000
1684 4 -1.595 5.702 11.516 0.001 -0.002 0.004 0.000
1685 4 -0.229 3.999 10.967 -0.007 0.001 -0.000 0.000
1686 4 1.037 7.545 12.302 0.004 -0.000 0.005 -0.000
1687 4 -0.032 4.763 13.322 -0.008 -0.004 -0.002 -0.000
1688 4 2.260 5.240 12.314 -0.002 0.015 -0.004 -0.000
1689 4 3.881 3.512 12.169 -0.000 -0.002 0.009 -0.000
1690 4 3.802 6.286 14.743 -0.012 0.006 0.003 -0.000
1691 4 5.514 4.467 14.610 -0.000 -0.000 0.006 0.000
1692 4 5.305 5.784 12.551 -0.002 -0.011 -0.006 -0.000
1693 4 8.061 6.409 11.788 -0.000 0.009 0.005 -0.000
1694 4 8.233 5.494 14.237 -0.007 -0.015 -0.010 -0.000
1695 4 10.443 3.882 13.972 -0.014 -0.007 -0.004 0.000
1696 4 10.565 5.853 11.525 0.005 0.000 -0.006 -0.000
1697 4 11.768 3.463 11.345 0.005 -0.001 0.003 0.000
1698 4 12.275 5.824 14.043 0.006 0.003 0.001 -0.000
1699 4 13.948 3.949 13.850 0.005 0.007 -0.005 0.000
1700 4 13.298 5.543 11.503 -0.001 0.003 0.008 0.000
1723 4 -1.601 6.872 13.765 -0.007 -0.001 -0.007 -0.000
1724 4 -1.072 8.166 11.570 0.008 -0.007 0.009 0.000
1725 4 0.389 10.188 10.252 -0.004 0.009 0.001 -0.000
1726 4 -0.093 10.159 13.803 -0.010 -0.005 0.010 0.000
1727 4 2.281 8.634 14.996 -0.002 -0.014 -0.009 -0.000
1728 4 2.175 9.965 12.534 0.008 -0.002 -0.002 0.000
1729 4 3.683 7.727 12.718 0.004 0.000 0.003 -0.000
1730 4 4.346 10.103 14.464 0.005 0.002 -0.001 0.000
1731 4 6.512 7.792 13.923 -0.007 0.007 0.006 -0.000
1732 4 4.765 10.011 11.592 -0.000 0.016 0.008 0.000
1733 4 8.881 9.053 13.254 0.006 -0.005 -0.001 -0.000
1734 4 9.653 9.523 11.116 0.001 -0.004 -0.007 -0.000
1735 4 10.259 7.126 13.671 0.001 -0.004 -0.012 -0.000
1736 4 8.684 7.217 9.755 0.008 -0.001 0.004 0.000
1737 4 11.736 8.605 11.212 -0.012 0.004 -0.001 -0.000
1738 4 11.952 9.109 14.002 -0.007 0.007 -0.001 0.000
1739 4 14.153 7.423 13.457 0.005 -0.007 -0.001 0.000
1740 4 14.343 9.369 11.492 0.005 0.007 -0.002 -0.000
1763 4 -2.170 11.157 12.716 -0.005 -0.006 -0.000 0.000
1764 4 -1.583 13.815 12.347 -0.006 0.002 0.001 -0.000
1765 4 0.354 11.918 12.313 0.000 0.005 0.001 0.000
1766 4 -0.110 13.466 14.678 0.002 -0.007 -0.002 -0.000
1767 4 2.145 11.495 14.666 0.002 0.011 -0.000 -0.000
1768 4 1.950 14.033 12.829 0.006 -0.002 -0.019 0.000
1769 4 3.581 12.018 12.283 -0.001 0.006 0.014 0.000
1770 4 4.133 14.164 14.153 -0.006 0.000 0.001 -0.000
1771 4 5.990 11.807 13.369 -0.004 0.009 -0.003 -0.000
1772 4 6.494 13.490 11.891 0.001 0.005 -0.008 0.000
1773 4 7.731 11.149 11.911 -0.009 0.000 -0.002 0.000
1774 4 8.423 13.482 13.253 0.002 -0.000 0.003 -0.000
1775 4 10.352 10.878 13.128 -0.003 -0.003 -0.006 -0.000
1776 4 10.573 13.030 10.309 -0.006 -0.000 -0.002 -0.000
1777 4 12.992 11.699 11.496 -0.015 0.005 -0.004 0.000
1778 4 12.356 13.658 13.681 -0.005 0.002 0.003 -0.000
1779 4 14.364 11.661 13.971 0.004 0.012 0.005 -0.000
1780 4 14.549 13.673 11.474 0.003 -0.000 -0.007 -0.000
2004 4 -2.651 -1.881 15.896 -0.013 0.002 -0.005 -0.000
2006 4 -0.090 -1.890 17.484 0.008 -0.005 0.002 -0.000
2008 4 1.609 -2.451 15.683 -0.004 0.002 0.000 -0.000
2010 4 3.908 -2.134 17.673 0.006 0.002 0.005 -0.000
2012 4 6.280 -1.566 16.149 -0.006 0.004 -0.011 -0.000
2014 4 8.111 -1.972 17.948 -0.004 -0.000 -0.000 -0.000
2016 4 10.071 -1.610 16.553 0.007 0.001 0.001 -0.000
2018 4 12.525 -1.684 17.937 -0.006 0.007 0.007 -0.000
2020 4 12.937 -1.958 15.260 0.004 0.009 -0.004 -0.000
2043 4 -2.148 -0.219 17.797 -0.006 0.000 -0.005 -0.000
2044 4 -2.193 1.803 16.225 0.001 -0.010 0.005 -0.000
2045 4 -0.207 -0.493 15.287 0.010 0.001 0.002 -0.000
2046 4 -0.408 1.892 17.503 -0.001 0.012 0.001 0.000
2047 4 1.346 2.025 15.857 -0.013 0.007 -0.000 0.000
2048 4 3.100 3.631 14.889 0.004 0.003 0.004 0.000
2049 4 4.479 -0.288 16.065 -0.007 0.001 -0.009 -0.000
2050 4 4.119 2.796 17.090 -0.002 -0.004 0.012 -0.000
2051 4 6.404 0.369 18.234 -0.007 0.005 0.002 -0.000
2052 4 6.524 2.007 16.306 0.007 0.005 -0.001 0.000
2053 4 8.364 -0.160 16.163 -0.002 -0.003 -0.003 0.000
2054 4 8.497 2.497 18.512 0.003 0.002 -0.002 -0.000
2055 4 10.153 0.422 18.042 0.001 -0.007 0.000 0.000
2056 4 9.682 2.003 15.517 0.002 -0.002 0.003 -0.000
2057 4 11.897 0.364 16.106 -0.009 -0.013 0.001 0.000
2058 4 12.327 1.901 17.918 0.009 -0.003 0.013 -0.000
2059 4 14.552 1.002 18.120 0.009 0.007 0.000 0.000
2060 4 13.698 2.465 15.820 0.004 0.002 -0.002 -0.000
2083 4 -1.953 3.867 17.934 -0.016 -0.012 0.003 0.000
2084 4 -2.159 5.724 16.337 -0.001 -0.003 0.002 -0.000
2085 4 -0.109 4.085 15.875 0.002 -0.006 0.003 0.000
2086 4 -0.603 5.804 18.227 0.002 -0.001 0.004 -0.000
2087 4 2.005 4.402 17.132 0.003 0.004 0.008 -0.000
2088 4 1.151 6.305 14.934 0.003 0.002 0.002 0.000
2089 4 4.613 4.964 16.913 -0.001 -0.010 0.007 0.000
2090 4 4.159 6.184 19.861 -0.008 -0.002 0.009 -0.000
2091 4 6.197 3.637 18.270 0.001 -0.004 0.003 -0.000
2092 4 6.795 6.028 16.471 0.001 0.010 0.005 -0.000
2093 4 8.208 3.909 16.291 0.002 -0.006 -0.001 0.000
2094 4 8.579 5.614 18.660 0.006 0.008 0.009 -0.000
2095 4 10.474 4.227 18.361 0.004 0.013 0.001 0.000
2096 4 10.021 5.114 16.204 -0.008 -0.006 -0.003 -0.000
2097 4 12.160 3.913 15.820 0.001 0.015 -0.002 0.000
2098 4 12.385 5.830 17.833 0.002 0.004 0.001 -0.000
2099 4 14.664 3.952 17.868 0.007 0.002 -0.004 0.000
2100 4 14.218 5.490 15.717 -0.019 -0.006 -0.002 0.000
2123 4 -1.695 8.136 18.011 0.006 0.000 0.001 -0.000
2124 4 -1.660 10.138 15.767 0.001 0.004 0.008 0.000
2125 4 -0.423 7.613 15.915 0.002 -0.004 0.005 0.000
2126 4 0.384 9.279 17.700 0.001 -0.006 0.005 0.000
2127 4 2.629 7.090 16.746 0.004 -0.001 -0.001 -0.000
2128 4 2.861 10.375 17.107 0.005 0.005 0.012 0.000
2129 4 4.716 8.244 16.204 0.003 -0.006 -0.001 0.000
2130 4 5.060 10.183 17.239 -0.003 0.006 0.008 -0.000
2131 4 7.011 8.267 17.559 -0.009 0.005 0.001 -0.000
2132 4 7.007 9.665 15.550 0.001 0.002 0.001 -0.000
2133 4 8.346 7.918 15.833 0.003 0.008 -0.008 0.000
2134 4 9.531 9.489 17.959 -0.002 0.008 0.006 -0.000
2135 4 10.185 7.307 18.108 -0.001 -0.009 -0.005 0.000
2136 4 10.194 9.836 15.541 0.014 -0.003 -0.002 0.000
2137 4 11.276 7.736 15.998 -0.000 -0.007 0.002 -0.000
2138 4 12.416 9.355 17.666 -0.001 -0.005 0.000 0.000
2139 4 13.881 7.267 17.351 0.005 0.001 0.002 0.000
2140 4 13.858 9.796 15.684 -0.003 -0.010 0.004 -0.000
2163 4 -1.475 11.084 17.979 -0.013 0.002 0.008 -0.000
2164 4 -2.259 12.897 16.137 0.002 -0.005 -0.010 0.000
2165 4 0.590 11.256 16.295 -0.002 0.007 0.006 0.000
2166 4 0.152 13.396 17.956 -0.003 -0.000 0.005 0.000
2167 4 2.506 12.801 17.941 -0.002 0.007 0.006 -0.000
2168 4 2.161 13.734 15.639 -0.006 -0.005 -0.002 0.000
2169 4 4.293 12.351 15.895 0.001 -0.004 0.002 0.000
2170 4 6.194 12.745 17.724 0.002 -0.002 0.001 -0.000
2171 4 7.470 10.882 17.549 -0.005 0.014 -0.003 0.000
2172 4 6.533 13.600 15.177 0.005 0.002 -0.015 0.000
2173 4 8.435 11.432 15.142 0.001 0.003 0.009 0.000
2175 4 10.880 11.805 17.643 0.000 0.008 -0.004 0.000
2176 4 10.218 13.076 14.914 0.001 -0.017 -0.002 0.000
2177 4 11.833 11.263 15.579 0.002 -0.001 -0.005 -0.000
2178 4 12.244 14.045 17.744 0.013 0.002 0.000 0.000
2179 4 14.159 11.463 17.577 -0.006 0.005 -0.001 0.000
2180 4 13.872 13.620 16.062 0.009 -0.005 -0.002 0.000
2404 4 -1.613 -1.702 19.741 -0.002 -0.014 0.011 -0.000
2408 4 1.868 -1.093 19.112 0.003 0.009 -0.006 0.000
2410 4 3.487 -2.161 20.927 0.003 0.002 0.003 0.000
2412 4 6.313 -2.480 18.907 0.004 -0.003 0.005 0.000
2416 4 10.418 -2.114 19.608 0.006 0.002 0.012 0.000
2420 4 14.560 -1.778 19.370 -0.005 0.004 0.001 -0.000
2444 4 -2.483 1.060 20.284 -0.005 -0.000 -0.002 0.000
2445 4 -0.000 0.121 19.818 -0.002 -0.001 -0.006 0.000
2448 4 2.216 -0.406 17.054 -0.004 -0.004 0.015 -0.000
2449 4 4.232 0.607 18.749 0.005 -0.008 -0.007 0.000
2452 4 6.382 1.870 20.152 0.006 0.010 -0.001 0.000
2453 4 8.215 -0.150 19.955 -0.001 0.001 0.000 0.000
2454 4 8.329 2.100 22.082 -0.009 -0.007 -0.003 -0.000
2456 4 10.389 2.091 20.266 0.004 0.001 -0.008 0.000
2457 4 12.648 0.213 20.130 0.004 0.009 -0.002 -0.000
2460 4 14.506 2.234 19.830 0.002 0.003 -0.012 -0.000
2483 4 -0.815 4.599 20.967 0.004 -0.001 0.001 -0.000
2484 4 0.864 6.523 21.994 0.000 0.003 -0.002 0.000
2485 4 0.596 3.954 18.892 -0.010 0.005 -0.001 0.000
2488 4 1.664 6.216 19.285 0.003 0.005 0.004 0.000
2489 4 3.595 3.979 19.060 -0.001 -0.010 -0.008 0.000
2492 4 6.510 6.726 19.176 -0.002 -0.000 0.004 0.000
2493 4 8.193 3.575 20.573 -0.002 0.002 -0.000 0.000
2496 4 10.307 5.769 20.552 0.009 -0.006 0.004 0.000
2497 4 12.577 3.941 19.766 -0.002 0.009 0.004 -0.000
2500 4 14.374 5.629 19.711 -0.013 -0.006 -0.017 0.000
2524 4 -1.408 9.449 19.860 -0.003 -0.007 -0.004 0.000
2525 4 0.146 7.737 19.946 0.003 -0.005 -0.003 -0.000
2528 4 2.311 9.367 20.243 0.006 -0.014 -0.005 -0.000
2529 4 4.196 8.705 19.339 -0.003 -0.002 -0.007 0.000
2532 4 6.405 9.322 19.858 0.005 0.002 0.003 -0.000
2533 4 8.477 8.038 19.818 0.009 -0.007 -0.002 0.000
2536 4 11.052 9.963 19.957 0.000 -0.007 0.016 0.000
2537 4 12.281 7.479 19.802 0.002 0.001 -0.001 -0.000
2540 4 13.940 9.727 19.680 0.004 0.009 0.005 -0.000
2563 4 -1.627 11.471 21.848 -0.002 -0.002 -0.003 0.000
2564 4 -1.569 13.443 19.855 -0.002 -0.002 0.004 -0.000
2565 4 0.468 11.662 19.690 -0.001 0.002 -0.015 -0.000
2568 4 2.049 13.254 20.273 -0.005 -0.005 0.002 0.000
2569 4 4.683 11.526 19.381 0.012 -0.002 0.005 0.000
2572 4 7.272 13.107 19.501 0.009 0.008 0.009 0.000
2573 4 8.901 12.996 17.207 -0.000 -0.005 0.002 -0.000
2576 4 10.201 13.469 19.481 -0.003 -0.001 0.004 0.000
2577 4 12.272 12.222 19.588 0.007 0.003 0.013 -0.000
2580 4 13.968 14.221 20.401 0.011 0.005 0.008 0.000
165 4 -2.314 11.438 -3.074 -0.016 -0.011 -0.006 0.000
2447 4 2.353 -0.066 21.196 0.007 -0.002 0.006 0.000
2574 4 8.782 11.105 19.820 0.010 -0.007 -0.001 -0.000
207 4 -0.454 13.513 -2.537 0.001 0.001 0.002 -0.000
524 4 -3.085 13.546 -1.926 -0.010 0.004 0.002 -0.000
166 4 1.167 11.981 -3.076 -0.005 -0.001 0.002 -0.000
2455 4 10.419 0.011 21.420 0.011 -0.009 0.002 -0.000
2539 4 14.050 7.921 21.490 0.013 0.001 0.019 0.000
2523 4 -1.502 8.186 22.046 0.002 0.003 -0.002 -0.000
2570 4 4.065 13.198 21.652 0.016 0.005 -0.003 -0.000
1241 4 -0.527 0.774 10.009 0.005 -0.006 0.001 -0.000
2490 4 3.678 6.398 22.048 0.004 0.007 0.002 0.000
417 4 14.075 0.550 -1.663 -0.004 -0.003 -0.006 -0.000
2491 4 5.777 4.608 20.667 0.000 0.010 0.002 -0.000
2487 4 2.385 1.862 19.340 0.003 -0.009 0.001 -0.000
405 4 -2.658 -2.820 1.685 -0.002 -0.006 -0.003 0.000
2566 4 0.239 13.718 21.597 -0.001 -0.006 0.013 -0.000
2082 4 -2.281 6.948 20.243 -0.001 0.005 -0.003 0.000
2535 4 9.986 7.959 21.797 -0.013 -0.006 0.000 -0.000
415 4 10.206 -2.555 3.790 -0.006 -0.003 0.007 -0.000
2567 4 2.395 11.390 21.961 0.001 0.010 -0.007 0.000
2486 4 2.069 4.342 21.211 0.000 0.011 0.003 -0.000
481 4 1.160 3.007 -0.063 -0.004 -0.007 -0.003 0.000
809 4 4.428 0.902 6.264 0.011 0.005 0.001 -0.000
2459 4 14.688 -0.017 21.463 0.007 0.004 -0.002 0.000
2579 4 13.405 11.545 21.626 -0.009 -0.011 -0.002 0.000
1204 4 -0.086 -0.869 5.236 -0.005 0.015 0.002 -0.000
2418 4 12.057 -2.408 21.556 0.009 -0.005 -0.002 0.000
2498 4 12.425 5.838 21.345 0.001 -0.005 0.003 0.000
811 4 1.544 -1.246 3.303 -0.006 -0.005 -0.006 0.000
2495 4 10.446 3.752 21.974 0.014 -0.004 0.004 -0.000
1281 4 -2.761 4.059 9.973 -0.005 -0.009 -0.001 -0.000
841 4 -2.950 0.744 -0.039 0.015 0.006 -0.005 -0.000
2530 4 4.212 9.939 21.643 0.003 0.008 -0.001 -0.000
2446 4 0.146 2.099 21.192 0.006 -0.005 0.007 0.000
801 4 -2.328 0.195 3.507 -0.007 0.004 -0.003 -0.000
2578 4 11.931 13.679 21.788 -0.003 0.004 0.013 -0.000
56 4 8.480 1.569 -1.588 -0.010 0.002 0.004 -0.000
2414 4 7.742 -2.237 21.172 0.007 0.002 0.000 -0.000
12 4 6.514 0.002 -1.473 -0.011 0.006 0.003 -0.000
2450 4 4.322 2.522 20.885 0.006 -0.005 -0.009 -0.000
2451 4 6.270 -0.798 20.429 0.002 -0.010 0.001 -0.000
20 4 13.992 -1.451 -3.461 0.006 0.004 0.006 0.000
44 4 -1.761 1.621 -3.635 -0.004 0.002 -0.002 -0.000
3 4 -1.887 -0.670 -1.705 -0.003 0.007 0.012 -0.000
842 4 -2.514 2.306 7.613 0.005 -0.002 0.010 0.000
140 4 14.284 10.203 -3.486 -0.001 0.002 -0.016 -0.000
407 4 -0.650 -0.941 0.414 -0.006 0.008 0.002 0.000
4479 4 -1.829 0.768 5.771 0.001 0.000 0.006 -0.000
2 4 -2.803 -2.799 -1.207 -0.007 0.010 0.004 0.000
1011 4 5.990 15.137 6.214 -0.004 0.004 -0.002 -0.000
1609 4 3.886 -2.229 11.362 -0.007 0.001 0.006 0.000
2972 4 8.987 13.277 21.803 0.002 -0.005 -0.004 -0.000
1605 4 -1.178 -1.515 10.802 0.008 0.011 0.009 0.000
1013 4 6.920 15.567 3.758 0.010 -0.003 0.013 -0.000
1215 4 9.922 -3.285 9.952 -0.005 -0.001 -0.007 0.000
2209 4 5.279 15.306 16.729 -0.002 0.007 0.004 0.000
412 4 3.808 -1.169 -0.346 -0.008 0.013 0.005 -0.000
807 4 -0.848 -1.650 2.656 -0.004 0.003 0.004 -0.000
2207 4 2.358 15.244 18.267 -0.000 0.003 -0.018 -0.000
812 4 7.626 -2.589 2.630 0.000 -0.004 0.008 -0.000
881 4 -1.175 5.147 5.757 0.002 0.021 -0.002 0.000
1009 4 4.700 15.173 4.261 0.001 -0.006 -0.009 0.000
2609 4 4.699 14.217 19.230 -0.011 0.002 -0.010 0.000
17 4 12.244 -3.401 -2.753 -0.002 0.013 -0.010 -0.000
451 4 1.276 -2.484 0.887 0.007 -0.014 -0.005 -0.000
1015 4 9.231 15.207 5.677 -0.007 -0.006 -0.003 0.000
2211 4 7.521 15.506 18.284 0.004 0.005 -0.007 -0.000
9563 4 -3.107 -2.499 10.054 -0.002 -0.004 0.011 -0.000
1619 4 12.181 -3.437 13.319 0.005 0.003 -0.002 0.000
6 4 1.946 -3.459 -2.979 -0.005 -0.004 0.004 -0.000
2603 4 -1.937 15.531 21.829 0.003 -0.005 0.003 0.000
172 4 5.943 11.817 -2.875 0.005 -0.001 0.005 0.000
1203 4 -2.362 -0.510 8.814 0.001 -0.004 -0.004 -0.000
1417 4 11.289 15.525 6.986 0.005 0.003 0.005 -0.000
2499 4 14.328 4.065 21.954 0.003 -0.008 0.006 -0.000
1817 4 11.890 14.944 11.229 -0.008 -0.000 0.014 -0.000
62 4 14.396 3.684 -1.634 -0.009 0.008 0.011 0.000
5239 4 -3.233 -2.417 7.791 0.001 -0.010 -0.005 0.000
8766 4 -0.785 -3.396 -0.142 -0.005 -0.001 -0.003 -0.000
2607 4 2.792 15.582 21.191 -0.002 -0.001 -0.011 0.000
5 4 -0.517 -2.815 -2.487 0.004 -0.000 0.007 0.000
1413 4 8.066 15.114 7.802 0.003 0.001 -0.007 0.000
1209 4 3.616 -3.130 5.670 -0.004 -0.009 0.000 0.000
2005 4 -0.601 -3.652 15.930 -0.001 0.002 -0.001 0.000
2617 4 11.651 15.080 19.682 -0.006 -0.009 0.006 -0.000
13 4 7.486 -2.394 -3.443 -0.007 0.001 -0.004 -0.000
82 4 -2.754 3.806 1.528 0.005 -0.004 -0.008 -0.000
1419 4 14.038 15.284 9.783 -0.005 0.003 0.004 0.000
419 4 14.233 -2.762 0.425 0.004 0.010 -0.000 0.000
1611 4 5.739 -3.597 13.199 0.003 0.004 -0.005 -0.000
2571 4 6.712 11.668 21.311 0.018 -0.017 0.006 0.000
96 4 10.386 5.801 -3.853 0.000 0.005 -0.004 0.000
100 4 14.186 6.134 -2.949 0.001 -0.004 -0.006 -0.000
1809 4 3.729 15.328 11.836 0.002 -0.000 0.010 0.000
2022 4 15.041 -1.241 16.924 0.000 0.007 0.002 -0.000
902 4 15.302 5.857 5.098 -0.000 -0.009 -0.005 0.000
2522 4 -3.753 9.223 21.727 0.001 -0.005 0.008 0.000
1762 4 -3.558 14.074 13.697 0.002 0.003 -0.002 0.000
1362 4 -3.726 13.887 9.910 -0.008 0.009 -0.001 0.000
605 4 0.162 15.253 -0.554 0.002 0.004 -0.004 -0.000
2201 4 -3.388 15.527 16.463 0.003 0.007 0.000 -0.000
2213 4 8.804 15.304 15.395 0.004 -0.002 0.001 0.000
2601 4 -3.713 14.828 19.902 0.003 0.012 0.006 -0.000
102 4 14.345 6.234 -0.165 -0.007 0.008 0.002 0.000
1219 4 14.301 -3.204 10.580 0.002 0.001 0.004 0.000