ITEM: TIMESTEP
40000
ITEM: NUMBER OF ATOMS
32000
ITEM: BOX BOUNDS pp pp pp
-5.207302 75.687302
-4.271379 74.751379
-5.846956 76.326956
ITEM: ATOMS id type x y z vx vy vz q
531 4 7.254 8.274 10.556 0.001 0.006 0.003 -0.000
1690 4 14.266 4.611 0.542 0.008 -0.010 0.006 0.000
1767 4 9.666 10.666 7.780 -0.007 0.010 -0.007 -0.000
2528 4 8.981 7.812 9.182 0.007 0.003 -0.002 0.000
9974 4 -0.656 0.091 -3.588 -0.006 -0.005 0.008 -0.000
19736 4 7.923 14.228 10.163 0.009 0.004 0.003 -0.000
2643 4 13.844 7.905 9.341 -0.000 -0.001 0.002 0.000
6480 4 -0.913 4.253 -3.055 0.006 -0.008 0.014 -0.000
1282 4 2.959 10.430 7.914 -0.006 0.016 -0.002 -0.000
19408 4 2.898 12.814 8.629 0.013 -0.001 0.000 0.000
565 4 11.133 -1.204 -3.834 0.005 -0.001 0.007 -0.000
5360 4 1.537 -0.012 16.717 0.007 0.006 0.005 -0.000
19490 4 1.792 3.942 3.119 0.005 -0.002 0.003 0.000
900 4 6.247 11.243 17.239 0.007 0.004 -0.001 0.000
19217 4 7.553 2.975 10.772 -0.009 0.005 -0.001 0.000
23469 4 4.756 5.861 2.271 0.009 0.006 0.001 0.000
490 4 -1.797 6.047 2.531 -0.000 0.009 -0.002 -0.000
19282 4 2.897 7.866 5.723 0.009 0.000 0.012 -0.000
85 4 11.872 9.701 12.096 -0.003 -0.008 0.005 0.000
4955 4 2.783 14.095 14.200 0.006 -0.001 0.007 0.000
1766 4 -2.549 -0.762 16.652 0.008 -0.003 -0.001 -0.000
2126 4 -1.693 6.239 9.821 0.007 0.002 -0.014 -0.000
4232 4 4.963 14.667 -2.562 0.004 -0.008 -0.008 -0.000
404 4 0.073 5.433 4.543 0.006 0.009 -0.001 0.000
23632 4 8.082 -1.220 8.315 0.001 -0.004 -0.011 -0.000
575 4 -2.343 7.224 4.768 -0.010 -0.001 -0.002 -0.000
3307 4 1.482 1.687 6.885 -0.000 -0.009 -0.005 0.000
526 4 12.473 11.675 13.901 0.007 0.002 -0.010 0.000
18442 4 8.700 2.763 -1.298 -0.005 -0.001 -0.004 0.000
10374 4 11.357 5.833 9.364 0.006 0.002 -0.003 0.000
4517 4 8.423 0.180 2.734 -0.004 -0.001 -0.002 0.000
1096 4 6.158 3.778 4.368 0.004 -0.002 0.001 -0.000
949 4 11.931 6.789 2.227 0.002 -0.005 0.001 0.000
2007 4 3.355 3.766 7.941 0.001 0.007 0.005 0.000
2498 4 1.833 7.034 21.064 -0.002 -0.002 -0.008 -0.000
648 4 2.975 8.043 3.633 -0.001 0.001 -0.001 -0.000
496 4 -0.776 10.320 6.757 0.007 -0.002 0.001 0.000
23707 4 1.155 9.742 4.777 -0.001 -0.012 -0.004 -0.000
1220 4 3.189 5.635 17.412 -0.004 -0.002 -0.005 -0.000
2215 4 5.881 1.743 2.617 0.006 0.007 -0.001 -0.000
10684 4 2.297 1.364 4.393 0.002 0.006 -0.000 -0.000
202 4 5.794 3.404 6.927 0.008 0.003 -0.014 0.000
844 4 5.066 8.729 6.408 -0.008 0.013 -0.000 -0.000
4074 4 1.656 5.564 6.406 -0.000 0.015 0.003 0.000
3365 4 -1.328 7.892 14.336 0.004 -0.005 0.001 -0.000
1367 4 -1.670 6.738 17.737 -0.008 -0.006 -0.013 -0.000
13152 4 0.969 5.792 10.984 0.006 -0.002 0.000 -0.000
146 4 1.356 11.369 0.119 0.004 -0.009 -0.006 0.000
445 4 13.349 2.458 -0.281 -0.006 0.001 -0.000 0.000
6067 4 0.944 12.252 13.010 -0.007 -0.005 -0.005 0.000
9487 4 11.186 1.089 0.626 -0.002 -0.006 -0.010 0.000
13597 4 9.791 3.149 8.775 -0.002 0.002 0.005 0.000
1801 4 8.707 9.064 -0.297 -0.007 0.005 -0.001 -0.000
7718 4 8.618 6.184 14.442 0.006 -0.009 0.000 0.000
8731 4 1.439 0.232 9.372 -0.003 -0.001 0.010 -0.000
23799 4 12.636 6.022 11.435 -0.006 -0.001 -0.004 -0.000
18934 4 5.130 8.391 -2.096 -0.005 0.009 -0.001 0.000
6029 4 4.089 1.569 7.030 -0.004 0.001 -0.001 -0.000
12360 4 -0.801 7.013 -3.330 0.006 0.003 -0.010 -0.000
18852 4 10.986 4.404 3.359 -0.001 0.011 0.006 -0.000
19667 4 -1.839 0.878 -5.695 0.004 0.003 0.001 -0.000
894 4 5.104 -0.794 1.671 -0.003 0.005 -0.001 -0.000
2981 4 5.550 11.484 9.024 -0.006 0.005 -0.008 -0.000
6589 4 3.232 11.782 13.531 0.004 0.011 -0.008 -0.000
9884 4 2.270 7.570 8.549 -0.010 -0.006 0.012 -0.000
614 4 -0.502 8.460 3.073 0.003 -0.005 -0.001 -0.000
10296 4 1.582 12.224 15.674 0.001 -0.006 0.006 0.000
9966 4 12.379 2.384 19.586 -0.004 -0.000 -0.003 -0.000
4480 4 4.796 9.164 8.548 0.007 -0.004 -0.003 0.000
2093 4 6.609 7.300 8.283 -0.007 0.011 0.005 -0.000
19782 4 7.108 10.113 5.724 0.010 -0.011 -0.006 -0.000
23396 4 3.855 -0.903 8.015 0.004 -0.000 -0.009 0.000
528 4 13.808 10.669 10.328 0.008 0.005 -0.005 -0.000
6225 4 7.949 1.818 16.188 0.005 -0.002 -0.007 0.000
201 4 9.782 3.908 1.120 -0.002 -0.004 0.000 -0.000
2853 4 12.312 6.870 15.755 0.005 -0.004 -0.006 -0.000
1777 4 7.379 9.604 8.186 -0.003 0.007 0.019 -0.000
217 4 1.408 5.357 8.916 -0.006 0.000 0.002 0.000
27169 4 1.698 2.005 0.843 0.005 0.014 -0.008 0.000
22436 4 10.795 -0.688 3.442 -0.001 -0.005 0.002 0.000
173 4 8.975 3.252 6.290 -0.001 -0.000 -0.005 0.000
539 4 13.148 9.552 3.052 -0.006 0.002 -0.006 0.000
23635 4 7.023 14.241 12.699 0.002 -0.001 0.002 -0.000
8323 4 12.944 5.704 4.231 -0.002 0.007 0.005 0.000
855 4 7.862 4.570 8.104 -0.004 -0.005 -0.002 0.000
3048 4 0.596 12.069 7.993 -0.004 -0.010 0.005 -0.000
1221 4 9.432 12.699 -1.580 -0.004 -0.003 -0.001 0.000
5753 4 7.116 9.312 18.773 -0.008 -0.006 -0.001 0.000
2103 4 10.841 0.119 10.398 0.016 -0.002 -0.001 0.000
5473 4 2.081 11.695 3.061 -0.007 -0.010 0.003 -0.000
6878 4 5.794 0.551 12.629 -0.002 -0.008 0.004 0.000
3830 4 10.956 4.258 11.073 0.008 0.007 0.001 0.000
1881 4 0.025 1.611 14.788 0.000 -0.008 0.008 -0.000
2931 4 -1.415 -0.367 19.428 -0.009 0.006 -0.006 -0.000
2647 4 2.620 -0.263 1.984 0.004 -0.003 -0.001 0.000
6427 4 -2.455 12.244 6.536 -0.005 0.006 0.009 -0.000
1364 4 3.482 5.758 12.582 0.008 0.009 0.001 -0.000
8326 4 1.151 3.031 8.963 -0.004 -0.007 0.002 -0.000
4599 4 10.898 13.028 1.248 0.004 0.005 0.006 -0.000
424 4 8.183 0.175 11.577 -0.002 0.002 -0.003 0.000
17343 4 11.727 4.488 15.842 0.009 0.001 -0.002 -0.000
12796 4 -0.347 -0.868 10.968 -0.007 -0.005 -0.000 -0.000
12396 4 11.494 10.518 16.662 -0.001 -0.000 0.002 0.000
27579 4 3.179 3.511 5.399 0.002 0.006 -0.003 0.000
9533 4 7.227 -1.841 12.855 -0.001 0.005 0.002 0.000
16513 4 7.997 12.296 6.588 -0.002 0.003 0.001 -0.000
6996 4 -3.238 -2.443 13.609 0.005 0.007 0.007 0.000
19376 4 4.927 6.197 -3.966 -0.004 -0.013 -0.001 0.000
12393 4 10.362 2.397 14.112 -0.010 -0.006 0.002 0.000
3435 4 2.585 8.225 10.935 0.010 0.003 0.007 -0.000
2422 4 6.667 9.604 12.792 -0.009 0.004 0.000 -0.000
13116 4 1.527 3.227 16.266 0.014 0.000 -0.001 -0.000
525 4 13.188 3.370 7.849 0.005 0.003 0.006 0.000
2087 4 7.484 4.086 -3.177 0.009 0.003 -0.007 -0.000
133 4 12.480 1.852 14.610 -0.004 -0.005 0.001 -0.000
8965 4 8.386 -1.180 -4.153 0.002 -0.009 0.004 -0.000
505 4 4.484 12.681 16.052 -0.004 -0.002 -0.005 0.000
7072 4 4.054 -0.661 19.100 -0.004 -0.010 -0.014 -0.000
1409 4 13.162 8.808 21.051 0.005 0.009 0.007 0.000
9886 4 3.134 3.646 10.825 -0.001 -0.000 0.005 -0.000
564 4 7.310 1.595 5.388 0.005 0.003 -0.002 -0.000
4313 4 -0.266 9.458 0.503 0.008 -0.004 0.002 -0.000
7019 4 1.181 9.665 19.714 0.008 -0.003 0.006 0.000
1443 4 3.866 5.628 10.068 -0.005 0.002 -0.003 0.000
16555 4 9.624 9.901 10.761 -0.002 -0.000 -0.004 -0.000
2124 4 5.287 10.659 14.653 -0.000 -0.004 0.004 -0.000
1336 4 0.852 7.542 12.912 0.002 0.007 0.010 -0.000
1774 4 4.994 -1.581 11.444 -0.007 0.005 -0.006 0.000
5068 4 10.233 9.869 14.298 -0.003 -0.000 0.001 0.000
6550 4 9.223 0.814 8.083 -0.006 0.009 -0.002 0.000
697 4 9.583 -2.556 7.394 -0.004 0.004 -0.001 0.000
6154 4 0.933 5.253 13.743 0.004 0.008 -0.004 -0.000
573 4 6.425 10.996 1.063 -0.010 0.002 -0.009 0.000
6673 4 0.678 13.767 9.794 -0.003 -0.006 -0.001 0.000
178 4 9.966 8.459 4.858 -0.002 -0.000 -0.011 -0.000
1216 4 8.907 1.412 0.673 0.001 -0.004 0.005 -0.000
58 4 7.868 5.287 5.664 -0.000 0.008 -0.006 -0.000
3366 4 9.212 8.231 16.090 0.003 0.001 0.008 0.000
5267 4 -3.019 6.855 15.499 -0.006 0.001 -0.009 0.000
27566 4 -0.681 10.792 2.481 0.000 -0.002 0.005 0.000
18496 4 1.779 9.304 1.573 0.010 -0.004 0.008 -0.000
447 4 4.584 3.937 0.724 -0.001 0.008 -0.005 -0.000
2265 4 13.031 6.234 7.223 0.008 -0.001 0.008 0.000
15594 4 -0.195 9.804 12.002 0.004 -0.006 0.002 -0.000
19223 4 4.000 3.503 3.087 0.003 0.007 0.004 -0.000
1206 4 8.617 4.655 12.465 0.007 0.006 0.006 -0.000
5221 4 2.528 -1.870 9.901 0.003 -0.002 0.014 -0.000
3246 4 5.515 12.167 13.205 0.001 -0.008 0.001 -0.000
19702 4 6.970 -2.243 2.378 0.000 -0.003 -0.002 0.000
8682 4 6.560 5.671 10.524 0.000 0.005 0.007 0.000
2185 4 11.005 5.412 13.997 -0.008 -0.005 0.002 -0.000
9164 4 9.659 2.247 -3.810 0.007 0.004 0.006 -0.000
2506 4 12.450 0.459 4.610 -0.002 0.000 0.006 -0.000
7471 4 3.213 8.040 15.056 0.007 -0.008 0.003 -0.000
6472 4 6.056 -0.193 14.959 -0.003 0.004 -0.018 0.000
16043 4 1.289 0.139 13.042 0.000 -0.008 0.002 -0.000
19309 4 1.703 -0.942 4.266 -0.001 -0.005 -0.003 0.000
11888 4 6.168 4.390 14.798 0.004 -0.007 0.000 0.000
31200 4 -0.373 -2.161 8.584 0.003 -0.010 0.006 -0.000
2867 4 4.494 8.429 1.153 0.007 -0.006 -0.008 -0.000
1643 4 1.967 2.897 13.521 0.012 0.003 0.002 -0.000
20079 4 3.935 9.704 12.491 -0.001 -0.001 0.009 -0.000
6911 4 3.089 5.016 15.076 0.003 -0.004 0.013 -0.000
3608 4 8.750 -2.312 3.683 -0.002 0.003 -0.002 0.000
493 4 7.162 -0.697 0.668 -0.010 0.005 -0.003 -0.000
46 4 -1.668 -0.026 1.284 0.001 0.010 0.005 0.000
81 4 -2.053 9.268 17.022 0.006 -0.002 0.004 0.000
1098 4 -3.028 6.214 7.130 -0.000 0.000 -0.007 0.000
27966 4 -3.377 12.039 3.791 -0.020 -0.011 0.007 0.000
20669 4 9.690 -1.647 12.414 -0.007 0.006 -0.007 0.000
5674 4 -0.731 4.521 16.380 0.003 0.003 0.012 -0.000
1004 4 10.007 4.878 -2.866 0.003 0.012 -0.002 0.000
2221 4 -0.659 5.901 20.302 -0.007 0.013 0.012 0.000
19645 4 4.574 6.031 7.419 0.007 -0.015 -0.010 -0.000
487 4 9.932 11.987 3.332 0.000 -0.007 0.004 0.000
19699 4 5.857 6.489 4.848 -0.005 -0.003 -0.004 0.000
18845 4 3.311 3.513 17.582 0.007 0.008 -0.005 -0.000
6987 4 7.018 8.813 14.687 0.002 0.001 -0.000 0.000
10698 4 4.024 0.817 16.780 -0.001 -0.011 -0.009 -0.000
19244 4 5.759 -2.169 6.955 0.004 -0.007 -0.000 -0.000
1404 4 7.012 6.750 12.610 -0.000 0.001 0.003 -0.000
6100 4 0.977 6.479 18.399 0.003 -0.002 0.008 0.000
4428 4 12.044 0.379 -1.907 0.001 -0.000 -0.005 0.000
18861 4 7.130 3.400 1.343 0.003 0.007 -0.001 -0.000
6913 4 12.710 9.318 15.083 0.010 -0.004 0.003 0.000
6470 4 6.185 -0.385 9.751 0.002 0.010 -0.005 -0.000
23478 4 3.163 10.198 16.021 0.014 -0.006 -0.003 0.000
2152 4 12.205 12.615 -0.950 0.001 -0.012 -0.002 0.000
19656 4 7.258 5.524 2.569 0.008 -0.014 -0.004 -0.000
1276 4 6.678 8.754 3.630 0.004 0.001 -0.002 -0.000
1271 4 13.061 8.702 17.985 0.002 0.010 -0.004 -0.000
3362 4 8.543 10.746 16.671 0.005 -0.002 0.006 0.000
1251 4 3.404 1.370 11.924 -0.003 0.002 0.004 -0.000
2857 4 1.754 9.561 14.064 -0.001 -0.003 -0.004 0.000
2516 4 4.738 11.203 6.740 0.005 -0.001 0.008 -0.000
11147 4 3.831 1.675 9.535 0.005 -0.002 -0.002 0.000
27926 4 -1.678 1.368 4.850 -0.001 -0.005 0.005 0.000
2133 4 -0.164 -1.847 1.781 0.010 0.006 0.018 -0.000
5387 4 -3.374 10.107 15.016 -0.001 -0.002 0.003 0.000
19806 4 9.415 7.292 1.709 -0.002 0.004 0.001 -0.000
2118 4 8.067 7.856 6.190 -0.002 0.002 -0.001 0.000
2729 4 2.847 15.338 10.721 0.010 0.000 -0.005 -0.000
11066 4 9.847 6.999 11.487 0.001 0.005 0.005 0.000
177 4 12.413 4.396 -4.035 0.002 -0.002 0.000 -0.000
2414 4 4.164 6.748 19.534 0.007 -0.009 -0.011 0.000
7219 4 -1.861 11.067 13.373 -0.007 0.013 0.003 0.000
3085 4 9.062 5.444 9.845 0.004 0.006 0.006 -0.000
5393 4 8.688 4.247 -5.201 -0.012 0.002 -0.010 0.000
7474 4 -0.031 4.101 0.980 0.008 -0.003 0.008 -0.000
1704 4 6.024 -2.708 -0.463 -0.009 -0.002 -0.009 -0.000
4091 4 2.715 -1.765 12.126 -0.006 -0.008 -0.003 0.000
1293 4 2.241 11.753 5.870 -0.013 0.003 -0.003 0.000
150 4 3.950 -0.924 5.206 0.000 -0.011 0.004 -0.000
6239 4 8.888 8.501 12.968 -0.010 -0.005 -0.001 0.000
10322 4 0.553 2.021 11.086 0.007 -0.004 0.009 0.000
13513 4 1.544 -1.335 6.807 0.011 0.011 0.002 -0.000
10282 4 10.033 5.243 7.192 -0.012 0.000 0.004 -0.000
9970 4 5.689 2.630 16.593 -0.005 0.004 0.001 -0.000
1673 4 8.494 0.074 14.149 0.004 0.004 0.002 -0.000
926 4 7.773 2.448 13.603 -0.004 -0.007 -0.006 -0.000
8364 4 3.499 3.881 -2.519 -0.005 -0.003 -0.011 0.000
2668 4 4.552 11.355 4.336 -0.006 -0.001 0.005 -0.000
7787 4 -0.121 7.760 5.734 -0.006 0.005 -0.000 -0.000
9052 4 3.361 -2.550 2.973 0.006 -0.007 0.001 -0.000
14345 4 11.173 2.221 7.064 0.012 0.002 -0.002 -0.000
6833 4 -1.336 0.967 12.472 0.002 0.008 -0.001 -0.000
4073 4 1.357 9.358 -1.964 0.006 0.009 -0.005 -0.000
899 4 5.305 3.711 12.183 -0.003 -0.002 0.004 -0.000
2895 4 10.399 12.625 15.365 0.004 -0.001 0.004 0.000
18858 4 11.654 10.652 5.720 -0.001 -0.003 -0.004 0.000
4640 4 1.147 13.603 -1.089 -0.000 -0.002 -0.007 -0.000
27962 4 3.562 5.719 4.504 -0.002 0.001 -0.002 -0.000
18457 4 6.876 1.182 -3.773 -0.001 0.002 -0.016 0.000
2579 4 9.265 13.426 -3.748 -0.002 -0.000 -0.001 -0.000
4556 4 4.939 -2.256 13.821 0.002 -0.006 0.014 0.000
815 4 7.008 2.045 8.100 -0.003 -0.001 -0.009 -0.000
4829 4 -0.737 14.573 -1.930 -0.002 0.001 -0.007 0.000
5755 4 1.707 6.245 2.718 0.003 -0.016 0.005 -0.000
2531 4 11.423 10.819 9.425 0.007 0.012 -0.001 0.000
13958 4 -1.483 -0.409 3.706 -0.003 0.013 0.002 0.000
846 4 10.391 9.390 2.539 0.001 0.002 -0.002 -0.000
281 4 6.434 -0.866 -2.009 -0.006 -0.004 -0.010 0.000
1781 4 11.057 7.656 -2.888 0.001 0.004 0.016 -0.000
1238 4 11.813 8.383 10.119 0.002 0.003 0.010 -0.000
591 4 11.684 3.829 5.390 0.005 -0.008 0.009 0.000
8721 4 2.818 2.522 -4.461 -0.008 -0.005 0.000 0.000
4558 4 1.226 8.776 17.079 0.006 -0.003 0.003 0.000
3468 4 9.902 7.375 19.448 0.012 0.005 0.008 -0.000
174 4 -0.162 6.774 1.043 -0.002 -0.012 0.013 0.000
8757 4 13.331 10.019 7.541 0.008 -0.005 0.002 0.000
12752 4 1.850 11.206 10.775 -0.007 -0.003 -0.000 -0.000
4033 4 8.383 2.881 3.362 0.004 0.005 -0.000 0.000
777 4 5.645 13.784 2.837 -0.001 0.001 -0.007 -0.000
20276 4 -2.463 2.322 16.082 -0.015 0.005 0.001 -0.000
5709 4 1.005 8.863 7.121 -0.004 0.000 -0.000 -0.000
27522 4 0.490 3.443 5.819 0.005 -0.004 -0.003 -0.000
19820 4 12.426 15.453 -3.624 -0.001 0.003 -0.009 0.000
962 4 3.934 13.571 6.576 0.004 0.002 0.004 -0.000
6717 4 5.241 8.880 16.524 -0.007 -0.005 0.002 0.000
16548 4 3.768 12.850 0.712 0.005 0.000 -0.001 -0.000
251 4 8.872 11.110 -3.537 -0.018 -0.004 0.002 0.000
2524 4 -0.705 3.131 13.323 -0.003 -0.006 0.002 -0.000
16122 4 5.021 7.835 11.651 0.006 0.006 -0.002 -0.000
19923 4 1.304 4.274 -2.351 0.006 0.004 -0.001 -0.000
1009 4 7.848 11.649 9.354 0.001 0.002 -0.010 -0.000
10201 4 5.369 1.876 18.908 -0.005 0.003 0.005 0.000
1695 4 8.232 5.220 19.661 0.010 0.003 0.001 0.000
4440 4 -1.032 5.747 12.295 0.003 0.002 -0.010 0.000
1900 4 7.120 7.616 1.567 -0.002 0.005 -0.004 -0.000
1809 4 11.131 -2.180 5.367 -0.007 0.008 -0.002 -0.000
11533 4 8.302 -2.092 19.794 0.004 -0.008 -0.006 -0.000
3429 4 3.122 13.500 4.315 0.002 -0.000 -0.003 -0.000
5723 4 9.888 -1.840 10.076 -0.002 0.004 -0.002 0.000
2179 4 10.710 8.278 7.581 0.006 0.005 -0.006 -0.000
5760 4 -1.535 8.668 9.329 -0.000 0.001 -0.009 -0.000
19007 4 12.170 10.978 -3.889 0.013 0.009 0.002 0.000
8333 4 9.975 1.049 5.380 0.002 -0.002 -0.002 0.000
7182 4 3.711 12.868 10.955 -0.002 0.004 -0.002 -0.000
19734 4 2.171 5.103 0.376 0.003 -0.013 -0.008 0.000
1614 4 9.802 2.146 11.370 -0.000 -0.002 -0.004 -0.000
1291 4 10.953 1.866 2.729 -0.005 0.001 -0.001 -0.000
8053 4 -1.016 13.225 2.490 0.000 0.005 0.005 0.000
13148 4 12.035 -1.412 0.851 -0.001 0.006 -0.004 -0.000
19483 4 6.916 12.823 -3.463 0.007 -0.006 0.003 -0.000
190 4 13.187 2.960 3.292 0.004 0.001 -0.006 0.000
4872 4 -2.031 -0.138 9.357 0.005 -0.003 0.015 -0.000
403 4 11.200 -0.493 7.550 -0.000 0.004 -0.005 0.000
806 4 -3.615 14.509 6.717 0.001 0.005 0.000 0.000
9485 4 12.432 -2.785 20.332 -0.002 0.001 -0.000 0.000
6505 4 9.983 12.567 12.797 -0.007 -0.000 0.002 -0.000
7084 4 13.286 13.313 -3.276 0.003 0.006 0.002 -0.000
3420 4 7.713 5.274 17.004 -0.002 -0.012 -0.007 0.000
10758 4 5.815 3.826 9.427 -0.005 0.005 -0.003 -0.000
17209 4 11.161 3.107 -1.296 -0.001 -0.004 0.006 -0.000
7277 4 -3.526 2.566 12.449 0.003 0.001 0.012 0.000
10005 4 9.785 10.954 0.468 0.012 0.000 -0.006 0.000
19801 4 -0.406 6.571 7.939 -0.002 -0.002 0.005 -0.000
140 4 14.623 10.838 12.674 0.016 0.006 -0.003 0.000
11568 4 6.434 7.169 18.524 -0.006 0.003 0.009 0.000
6429 4 -0.376 -2.239 12.901 0.003 0.004 0.006 0.000
14714 4 -3.934 -3.556 4.714 0.001 -0.009 0.012 -0.000
11162 4 8.346 -1.191 16.663 -0.001 -0.005 0.000 -0.000
2046 4 -1.350 9.241 19.743 0.001 -0.010 0.010 0.000
6274 4 1.818 10.107 -4.217 0.009 0.001 -0.006 -0.000
1411 4 14.781 14.157 1.485 -0.005 0.012 0.003 -0.000
9685 4 5.196 12.469 -1.301 0.009 -0.000 -0.001 0.000
9946 4 3.260 0.317 14.641 0.001 0.006 -0.006 0.000
19370 4 -0.603 11.531 -1.877 0.002 -0.013 0.002 -0.000
11565 4 11.931 -2.589 -1.840 0.010 -0.002 0.004 0.000
1632 4 12.257 -2.018 10.222 -0.007 0.007 -0.001 0.000
7065 4 -3.078 10.059 2.436 0.007 0.001 0.005 -0.000
1689 4 10.733 -4.021 11.325 0.006 0.000 -0.007 0.000
2977 4 8.323 3.023 17.904 0.013 0.013 0.004 0.000
421 4 6.369 0.031 7.114 -0.001 -0.002 -0.002 0.000
19613 4 5.861 4.607 -1.433 0.009 -0.008 0.002 0.000
9137 4 5.977 -0.547 17.634 0.001 0.012 0.002 0.000
19353 4 11.799 8.431 0.015 0.002 -0.008 0.003 0.000
8368 4 10.561 -1.746 15.451 -0.014 0.000 -0.000 -0.000
503 4 11.335 6.630 5.739 0.006 0.013 -0.002 0.000
810 4 4.146 2.415 14.835 -0.004 0.002 0.005 0.000
9804 4 8.454 -2.767 15.031 0.000 -0.002 -0.007 -0.000
14188 4 -0.927 12.890 15.229 0.016 0.000 0.002 0.000
642 4 10.295 9.375 18.241 -0.012 -0.005 0.005 -0.000
27123 4 -3.899 -0.171 2.622 0.006 0.004 0.002 0.000
41 4 10.559 2.273 16.599 -0.005 -0.007 0.002 -0.000
3271 4 6.577 1.625 -0.987 -0.003 -0.004 0.002 -0.000
1240 4 12.215 13.978 5.160 0.001 -0.003 0.001 0.000
6877 4 -0.514 10.332 15.155 0.007 -0.006 -0.002 0.000
1701 4 7.698 13.124 1.024 0.010 0.008 -0.002 0.000
23835 4 1.273 0.010 -0.250 0.001 -0.003 -0.005 -0.000
9097 4 -3.096 -0.867 12.026 -0.002 -0.001 -0.001 0.000
847 4 5.814 13.581 5.679 -0.005 -0.005 -0.003 0.000
18481 4 0.140 1.206 2.491 -0.002 -0.010 0.001 0.000
1727 4 13.649 11.333 17.977 0.001 0.002 0.005 0.000
2842 4 13.245 3.265 17.193 0.009 -0.006 0.004 -0.000
406 4 12.505 13.105 2.880 -0.003 0.004 0.003 0.000
10305 4 13.445 -1.139 -3.338 0.005 0.005 -0.005 0.000
9486 4 -0.930 11.068 9.713 0.001 -0.003 -0.007 -0.000
10190 4 -3.915 -1.744 0.434 -0.010 0.003 0.012 -0.000
2435 4 8.832 3.892 15.217 0.007 0.000 -0.005 -0.000
3003 4 -1.607 -0.798 14.582 0.001 0.003 -0.005 0.000
27130 4 4.847 1.451 4.879 0.008 -0.000 0.010 0.000
2095 4 14.004 4.881 12.998 -0.003 -0.008 0.002 -0.000
19771 4 13.120 -1.677 3.744 0.002 -0.005 -0.007 -0.000
19737 4 7.230 11.935 3.377 -0.012 -0.003 0.008 0.000
5000 4 3.963 10.469 -0.264 0.009 0.001 0.008 -0.000
19230 4 12.130 4.199 1.265 0.006 0.001 -0.003 0.000
5838 4 14.293 7.466 14.111 -0.006 -0.015 0.006 -0.000
11139 4 12.444 -1.099 13.326 0.000 0.001 0.001 -0.000
1406 4 6.188 -3.052 15.806 0.005 -0.004 -0.014 0.000
17820 4 7.493 9.230 -3.401 0.004 -0.010 0.004 0.000
13075 4 3.502 6.232 -1.669 0.010 0.003 -0.001 -0.000
16473 4 9.542 14.437 16.316 0.002 0.007 -0.009 -0.000
14716 4 6.174 -0.277 3.927 0.006 0.005 0.001 -0.000
19814 4 2.234 -2.705 0.147 -0.008 0.007 -0.005 -0.000
214 4 -1.571 3.528 7.077 -0.005 0.001 0.008 0.000
12712 4 -4.584 4.449 1.475 -0.010 -0.004 -0.003 -0.000
1705 4 7.488 12.912 15.292 0.005 -0.006 0.002 -0.000
19504 4 1.162 5.260 -4.732 -0.004 0.009 -0.007 -0.000
1369 4 9.924 6.012 16.428 -0.005 0.001 -0.009 -0.000
8698 4 -3.488 4.807 17.030 -0.009 -0.011 -0.001 -0.000
2052 4 10.743 10.190 -1.780 0.001 -0.012 0.010 -0.000
901 4 11.722 12.381 7.326 0.001 0.003 -0.006 0.000
4353 4 7.405 11.454 -1.123 0.002 -0.004 -0.002 -0.000
18804 4 0.294 2.132 -4.595 -0.006 0.002 -0.000 -0.000
9972 4 12.939 -2.448 7.207 0.003 0.001 -0.009 0.000
6956 4 -2.217 12.080 17.346 0.008 -0.006 0.012 -0.000
1708 4 12.319 11.145 1.181 0.008 -0.005 0.002 -0.000
7415 4 2.993 10.693 18.347 0.002 0.001 -0.005 -0.000
458 4 10.703 5.869 -0.322 -0.002 -0.005 0.003 0.000
2251 4 -0.017 11.072 17.783 -0.006 0.011 0.008 0.000
2909 4 9.811 0.628 18.311 0.007 -0.014 -0.008 0.000
4068 4 -2.753 13.184 -1.805 -0.004 0.008 -0.021 -0.000
9921 4 1.495 6.808 -2.848 0.004 0.000 0.006 -0.000
9568 4 6.875 -3.321 9.115 0.000 -0.003 -0.008 0.000
1285 4 -2.244 8.218 1.106 -0.006 -0.006 -0.001 0.000
19367 4 4.589 8.534 -4.908 -0.001 -0.007 0.009 -0.000
2462 4 1.833 3.956 19.725 0.001 -0.012 -0.003 0.000
10657 4 5.289 6.580 15.833 -0.004 0.010 -0.005 0.000
8365 4 0.595 12.852 -3.511 0.007 -0.009 -0.012 -0.000
6139 4 -0.525 1.956 18.028 0.004 0.000 -0.006 -0.000
3286 4 -2.676 4.832 19.448 -0.016 -0.006 0.004 0.000
11168 4 -3.085 4.828 11.751 0.003 -0.000 -0.010 0.000
3134 4 0.842 6.720 15.709 0.002 -0.009 -0.008 0.000
1692 4 1.781 2.026 -2.039 0.003 -0.006 0.002 -0.000
22878 4 -2.383 3.900 -0.121 -0.004 0.009 0.000 0.000
13596 4 -0.343 -1.945 17.524 0.004 -0.002 -0.008 -0.000
3217 4 7.954 -0.823 5.425 -0.001 0.008 0.002 0.000
19887 4 4.168 1.492 0.315 0.007 0.005 0.001 -0.000
6216 4 2.832 12.045 -1.963 -0.005 -0.010 0.012 -0.000
4078 4 -0.981 3.622 3.563 -0.008 0.005 -0.008 0.000
977 4 2.392 7.854 -5.094 -0.004 0.006 -0.007 -0.000
4552 4 9.763 13.373 8.131 -0.003 0.007 0.004 -0.000
18510 4 9.826 -0.311 -1.506 0.011 -0.002 0.008 0.000
19774 4 6.147 -2.367 -3.925 -0.003 0.007 -0.005 0.000
2903 4 11.983 -3.151 2.548 -0.004 0.003 0.005 0.000
13997 4 -0.633 1.574 8.086 -0.000 -0.009 0.001 -0.000
172 4 0.504 -0.645 -5.696 -0.000 0.014 -0.004 0.000
13199 4 9.325 -1.493 1.227 0.006 -0.006 0.002 -0.000
4910 4 -3.510 5.620 -2.625 0.002 0.012 0.004 -0.000
10730 4 5.326 4.517 17.996 0.000 -0.004 0.002 0.000
5758 4 -1.626 13.796 8.701 -0.005 -0.004 -0.008 -0.000
13594 4 4.049 3.191 20.064 -0.001 0.013 -0.004 -0.000
13921 4 14.707 1.542 5.686 0.004 0.003 -0.000 -0.000
19281 4 -0.885 2.122 -1.447 -0.001 0.005 -0.006 -0.000
5060 4 -3.419 10.725 8.517 0.009 0.012 0.007 -0.000
7837 4 9.851 11.030 19.790 0.006 -0.004 -0.006 -0.000
19682 4 12.613 1.138 -4.169 -0.012 0.001 0.003 0.000
1930 4 -1.867 9.770 4.811 -0.004 -0.006 0.003 -0.000
2514 4 13.290 0.189 10.864 0.002 -0.002 0.004 0.000
20184 4 -2.581 8.708 7.162 0.008 -0.002 -0.006 -0.000
27887 4 2.728 -2.534 17.983 0.002 0.003 0.005 -0.000
3010 4 2.184 7.977 -0.021 -0.005 0.005 0.003 0.000
5020 4 -1.368 2.974 10.529 -0.012 -0.003 0.000 0.000
2964 4 -2.026 14.748 16.864 0.003 0.004 -0.005 0.000
3613 4 5.229 -3.650 17.826 0.006 -0.001 -0.000 -0.000
5350 4 12.259 0.463 17.797 0.009 -0.007 -0.003 -0.000
9131 4 11.098 -3.645 14.080 -0.017 -0.001 0.000 -0.000
1284 4 4.678 9.677 19.002 -0.010 0.010 -0.001 0.000
427 4 11.785 2.259 9.820 -0.000 -0.003 -0.005 0.000
19697 4 8.683 6.804 -4.272 0.008 0.008 -0.003 -0.000
1179 4 -0.617 10.202 -4.091 -0.001 -0.005 0.007 -0.000
2832 4 7.509 0.972 18.426 0.004 0.004 0.007 -0.000
3421 4 -0.316 12.592 4.967 -0.004 0.004 0.001 0.000
1651 4 -3.440 1.227 -0.007 -0.011 -0.001 0.001 0.000
18781 4 11.403 12.762 -4.966 0.008 0.009 0.002 0.000
5357 4 -3.097 2.516 2.575 0.005 -0.005 0.006 0.000
3401 4 12.294 12.645 20.583 -0.001 0.009 0.000 -0.000
489 4 -1.081 8.873 -1.564 -0.000 0.002 0.003 0.000
1733 4 4.348 12.807 -3.887 -0.007 0.000 -0.014 0.000
3243 4 -4.124 0.366 14.059 0.003 0.004 0.000 -0.000
18622 4 5.224 10.815 -2.815 -0.002 -0.007 0.001 0.000
6147 4 -2.715 4.509 14.108 0.005 0.002 0.010 -0.000
7116 4 -2.608 15.203 13.422 -0.009 0.002 -0.003 0.000
6431 4 -1.314 -0.624 6.857 -0.010 -0.006 -0.014 0.000
4198 4 -5.111 0.390 10.490 -0.003 0.003 -0.000 0.000
2525 4 13.698 -0.327 7.613 -0.004 -0.004 -0.016 -0.000
5880 4 -3.029 13.777 19.042 0.005 -0.008 0.006 -0.000
2412 4 3.025 13.733 17.926 0.005 0.005 0.008 -0.000
5335 4 -2.450 6.999 20.975 0.001 0.001 0.004 -0.000
8374 4 4.341 0.960 -2.593 0.006 0.003 0.006 -0.000
8370 4 -3.514 6.351 0.289 -0.005 -0.002 -0.007 -0.000
6438 4 -1.789 -3.148 15.584 0.008 -0.000 0.007 0.000
55 4 11.840 7.401 13.077 0.000 0.004 -0.000 0.000
9924 4 -2.560 9.082 -4.481 0.003 -0.004 0.005 -0.000
2108 4 12.092 10.389 19.335 -0.001 -0.001 0.009 -0.000
6654 4 0.667 15.154 15.660 -0.004 0.009 -0.008 0.000
20234 4 6.657 7.256 20.848 -0.013 -0.004 -0.005 0.000
3284 4 10.628 4.784 18.434 0.004 -0.004 -0.013 -0.000
1693 4 12.704 2.590 12.206 -0.004 0.004 -0.002 0.000
4995 4 0.803 14.846 12.390 -0.008 -0.003 -0.001 0.000
139 4 10.281 -2.907 0.131 0.005 -0.006 0.004 0.000
5739 4 -3.451 12.668 12.426 -0.008 0.002 -0.010 -0.000
19307 4 5.164 -3.031 4.663 0.004 0.000 -0.009 0.000
23631 4 -3.302 3.445 -3.821 0.002 -0.004 -0.002 -0.000
5285 4 11.680 14.852 7.529 -0.007 0.007 0.009 0.000
164 4 -3.004 10.845 11.174 -0.003 0.006 -0.010 -0.000
3373 4 -2.025 -2.963 10.837 -0.006 -0.002 0.005 0.000
10350 4 14.025 4.373 10.241 0.004 0.016 -0.002 -0.000
3855 4 -4.015 14.563 21.319 -0.000 0.005 -0.004 -0.000
19253 4 2.206 -0.166 -3.258 0.006 -0.010 0.008 0.000
1249 4 14.275 7.537 2.533 -0.006 -0.008 -0.007 0.000
3616 4 -1.353 14.040 21.251 -0.005 0.005 0.003 -0.000
1386 4 -1.461 6.057 -0.948 0.001 0.007 0.001 -0.000
24233 4 5.508 -2.630 20.770 0.007 0.007 -0.002 -0.000
20593 4 9.615 1.936 20.235 -0.007 -0.010 0.009 -0.000
1228 4 14.063 -0.776 18.569 -0.013 -0.008 0.004 0.000
88 4 8.634 -2.123 -1.302 0.001 0.003 0.015 0.000
1231 4 12.505 5.486 20.528 -0.001 0.002 0.008 -0.000
5315 4 7.015 11.768 19.934 -0.007 -0.006 -0.002 -0.000
11146 4 10.817 12.642 18.278 -0.005 -0.003 -0.006 -0.000
1169 4 14.324 15.146 -5.649 -0.001 0.007 -0.012 -0.000
613 4 2.660 14.380 -3.676 -0.006 0.005 -0.008 0.000
1046 4 10.381 13.106 10.231 -0.001 -0.005 0.002 0.000
983 4 3.975 -1.622 16.180 -0.005 -0.004 -0.001 -0.000
2164 4 -4.998 3.832 3.926 -0.007 0.004 -0.010 0.000
1331 4 7.336 2.794 20.756 -0.002 -0.002 0.005 0.000
19704 4 14.748 -3.420 2.695 0.000 -0.015 -0.001 -0.000
410 4 9.226 -3.150 -4.616 0.000 -0.006 0.004 0.000
163 4 3.707 -0.754 -0.608 0.001 -0.013 0.003 0.000
2208 4 -0.897 12.094 19.454 0.009 -0.000 -0.004 0.000
19459 4 -1.603 12.910 -4.110 0.003 -0.003 -0.001 0.000
27247 4 -0.586 -1.741 -0.756 -0.004 0.012 -0.007 0.000
2066 4 12.869 5.803 17.881 -0.007 -0.010 -0.010 -0.000
18583 4 11.158 15.049 3.392 0.011 -0.001 0.000 -0.000
871 4 14.484 0.559 13.465 0.005 -0.005 -0.003 0.000
22876 4 -2.012 -2.794 -3.931 -0.008 -0.003 0.001 -0.000
26705 4 13.196 8.228 5.661 0.007 -0.003 -0.011 0.000
579 4 14.025 7.074 -0.084 -0.001 -0.001 0.001 0.000
168 4 -0.931 13.041 0.345 0.013 0.005 0.001 0.000
6117 4 14.552 -1.612 11.899 -0.001 0.004 -0.005 0.000
13194 4 5.417 14.742 10.279 0.005 0.002 0.012 -0.000
3375 4 6.727 0.071 20.729 -0.002 -0.005 -0.008 -0.000
892 4 -4.026 7.193 10.119 0.007 -0.002 0.002 0.000
9962 4 -4.800 -2.054 10.926 0.001 -0.011 -0.004 0.000
6159 4 3.062 -2.709 21.255 -0.007 0.007 0.011 0.000
18822 4 12.764 5.173 -1.408 0.001 0.003 -0.004 0.000
5852 4 -0.855 12.421 11.531 -0.005 0.003 -0.005 -0.000
19096 4 -3.189 8.364 -1.459 0.007 -0.005 0.007 -0.000
11552 4 12.038 12.206 11.745 -0.004 -0.005 0.007 0.000
896 4 14.617 -2.222 14.483 0.011 -0.000 -0.004 -0.000
20478 4 -3.524 1.637 9.242 0.001 0.001 0.004 0.000
138 4 13.406 7.346 -4.798 0.003 0.002 -0.007 0.000
12797 4 -2.416 -2.779 6.825 0.001 -0.001 0.001 -0.000
841 4 -1.714 14.743 11.326 0.002 0.004 -0.000 0.000
27578 4 14.438 3.580 -2.124 -0.004 0.002 -0.007 0.000
19662 4 14.846 -1.245 5.485 -0.002 0.013 -0.004 -0.000
1783 4 12.593 15.026 1.371 0.001 0.012 0.012 0.000
23630 4 -2.947 5.789 -4.907 -0.008 -0.007 -0.006 -0.000
18084 4 5.169 3.724 -4.379 0.011 0.007 0.010 0.000
6634 4 -3.641 6.725 13.097 0.001 0.004 0.011 0.000
7159 4 9.367 14.266 6.167 -0.003 0.003 -0.002 0.000
18003 4 2.186 -3.179 5.402 -0.001 -0.007 0.003 -0.000
2063 4 11.681 -2.689 17.713 -0.002 0.004 0.000 -0.000
18825 4 11.373 -3.844 -4.145 0.000 -0.008 0.001 -0.000
18118 4 13.966 -3.524 -2.986 0.006 -0.004 -0.014 0.000
20474 4 4.425 12.374 19.434 0.008 0.008 -0.012 0.000
6548 4 -4.847 9.952 18.805 0.003 0.004 0.005 -0.000
1807 4 -2.774 4.670 5.047 0.011 -0.014 -0.011 -0.000
19617 4 3.888 -2.049 -2.738 0.002 -0.003 0.007 0.000
2112 4 8.574 14.367 3.198 -0.002 0.010 -0.003 -0.000
2860 4 2.231 12.319 -5.793 -0.003 0.010 0.001 0.000
930 4 -4.715 8.383 3.890 -0.007 -0.006 0.003 -0.000
8606 4 0.548 -2.219 -2.725 0.006 -0.005 0.007 -0.000
19488 4 -2.309 10.681 -0.218 0.004 0.008 0.003 0.000
3568 4 13.629 13.676 14.906 0.007 0.004 0.007 0.000
2001 4 2.382 1.318 19.053 0.001 0.006 -0.002 -0.000
22510 4 4.505 -0.374 -4.493 0.004 0.001 0.001 0.000
19785 4 -2.213 -2.592 2.283 0.005 -0.002 -0.005 -0.000
9933 4 -4.080 10.182 5.672 -0.002 0.004 -0.004 0.000
5235 4 -4.519 6.462 18.877 0.012 0.006 0.001 -0.000
11532 4 14.592 5.360 15.577 0.001 -0.003 0.003 -0.000
6583 4 -3.211 1.329 18.289 0.009 -0.002 -0.015 -0.000
5920 4 -1.933 8.364 11.691 -0.007 -0.003 0.012 -0.000
5114 4 4.658 14.527 12.587 -0.001 -0.007 0.003 -0.000
1646 4 11.541 -3.580 8.456 0.004 0.008 0.004 -0.000
19342 4 14.525 4.662 5.501 -0.002 -0.001 0.006 0.000
7239 4 11.297 14.474 14.101 0.001 0.000 -0.001 -0.000
1111 4 6.624 13.563 8.100 -0.003 0.002 -0.004 -0.000
7320 4 1.998 -2.305 14.638 0.001 -0.006 -0.000 0.000
22430 4 -4.784 -3.824 -2.121 -0.001 -0.013 -0.005 0.000
10332 4 14.620 6.409 -2.521 0.005 -0.012 -0.011 0.000
31992 4 -2.529 -1.196 -1.884 0.006 0.002 -0.001 0.000
2526 4 0.024 13.742 17.490 0.006 0.010 -0.003 0.000
2563 4 -4.788 -0.417 19.996 -0.005 -0.004 0.008 0.000
22594 4 8.754 1.520 -5.696 0.004 0.004 -0.004 0.000
2535 4 13.141 -3.739 12.540 0.007 -0.008 -0.000 -0.000
9552 4 10.753 6.171 -5.586 -0.008 -0.003 0.010 -0.000
6075 4 -4.863 10.286 12.971 -0.004 0.005 -0.003 -0.000
2169 4 0.263 2.217 20.410 0.008 0.004 0.003 0.000
1652 4 13.851 9.315 -1.790 -0.005 -0.011 -0.001 -0.000
27940 4 -0.256 -3.706 4.272 0.000 -0.003 -0.000 -0.000
1721 4 -3.188 0.972 6.857 -0.012 0.009 -0.004 0.000
2163 4 13.544 14.357 12.224 0.001 0.006 -0.000 0.000
31474 4 -4.074 -3.236 -5.134 -0.005 -0.003 -0.014 -0.000
22599 4 -2.793 11.130 -3.256 0.009 -0.006 -0.001 -0.000
603 4 -4.757 14.126 -3.379 -0.003 -0.002 0.012 0.000
19922 4 14.935 9.602 -5.483 0.006 -0.008 -0.015 0.000
3264 4 14.764 11.346 15.436 0.007 0.006 0.009 0.000
7513 4 -1.627 15.140 0.796 -0.003 0.008 0.003 0.000
3685 4 13.664 14.062 19.170 -0.007 0.006 0.009 -0.000
13180 4 -4.197 4.336 9.139 0.008 -0.001 0.004 0.000
2101 4 14.196 -3.187 9.278 0.002 -0.004 0.004 -0.000
1414 4 5.953 14.261 19.978 0.005 -0.005 -0.010 -0.000
3283 4 5.506 5.180 20.357 -0.008 0.002 -0.005 0.000