ITEM: TIMESTEP
36000
ITEM: NUMBER OF ATOMS
32000
ITEM: BOX BOUNDS pp pp pp
-5.061635 75.541635
-4.533862 75.013862
-5.939319 76.419319
ITEM: ATOMS id type x y z vx vy vz q
488 4 1.860 14.010 2.066 0.002 -0.002 0.001 0.000
531 4 3.037 9.096 14.546 0.009 0.001 -0.001 0.000
1646 4 12.664 1.706 11.204 0.005 0.003 0.004 -0.000
1651 4 -2.041 2.123 1.656 -0.002 0.010 -0.008 0.000
1655 4 1.564 2.648 12.229 0.002 -0.004 0.009 -0.000
1690 4 11.460 5.223 -0.732 -0.001 -0.001 0.001 -0.000
1767 4 6.252 13.647 10.747 -0.009 -0.001 -0.008 -0.000
2412 4 2.186 10.536 16.935 -0.005 0.005 -0.004 -0.000
2525 4 13.302 4.351 11.535 0.001 -0.002 0.003 0.000
2528 4 13.781 1.874 6.526 0.001 0.007 -0.002 -0.000
2573 4 12.741 10.734 2.829 0.007 -0.004 -0.008 -0.000
163 4 -3.439 -0.751 -4.928 -0.006 -0.000 0.002 0.000
1365 4 13.193 11.121 -1.919 -0.003 -0.007 0.010 0.000
9974 4 5.376 2.431 3.062 -0.002 -0.001 0.005 0.000
19736 4 5.378 11.221 12.798 -0.003 -0.004 -0.001 -0.000
2643 4 5.691 8.468 14.515 -0.005 0.003 -0.016 -0.000
6480 4 -0.895 -0.445 0.444 -0.007 0.001 -0.005 -0.000
1653 4 -4.154 1.083 4.920 -0.003 0.003 -0.007 0.000
1282 4 3.947 12.626 6.258 0.008 0.002 -0.005 -0.000
19408 4 4.507 3.936 9.433 -0.001 -0.000 0.005 -0.000
565 4 9.960 4.828 1.758 -0.002 0.007 -0.002 0.000
5360 4 6.108 -0.690 13.063 0.009 -0.010 0.008 -0.000
19490 4 -1.794 7.123 3.691 0.003 -0.008 -0.012 0.000
900 4 5.966 4.277 16.601 0.002 0.007 0.001 -0.000
19217 4 3.716 4.483 13.240 0.001 -0.000 -0.015 0.000
19730 4 0.864 11.846 11.919 -0.003 0.001 -0.014 0.000
23469 4 6.429 6.783 2.979 0.012 -0.002 0.001 0.000
490 4 0.191 8.256 2.582 -0.011 0.000 -0.004 -0.000
19282 4 2.918 5.560 4.760 0.006 0.004 0.001 -0.000
85 4 2.751 7.611 8.577 -0.002 0.002 -0.007 0.000
4955 4 9.030 9.256 12.667 -0.007 0.003 -0.004 -0.000
1401 4 0.462 13.903 10.321 0.006 0.002 0.002 -0.000
6119 4 6.541 3.623 13.992 -0.002 -0.007 -0.001 -0.000
1766 4 1.968 2.670 16.632 0.005 -0.004 -0.003 -0.000
2126 4 -1.921 5.869 9.494 0.001 -0.003 0.005 -0.000
4232 4 4.519 7.777 -1.734 0.007 0.012 0.009 0.000
404 4 -3.382 5.435 3.637 -0.003 -0.003 -0.002 -0.000
23632 4 3.973 2.429 11.583 0.004 -0.004 -0.009 0.000
575 4 0.096 11.035 3.410 0.001 0.004 -0.007 -0.000
19689 4 -1.982 -1.049 5.011 0.003 0.006 0.013 0.000
3307 4 4.267 0.525 7.989 -0.001 0.011 0.005 -0.000
8644 4 8.226 2.977 15.828 0.005 0.000 0.008 0.000
526 4 9.779 7.524 14.712 -0.011 0.003 0.001 0.000
18442 4 6.338 1.699 5.119 -0.004 -0.002 0.010 0.000
4995 4 0.641 7.079 9.821 -0.000 -0.002 0.002 -0.000
10374 4 6.975 5.488 7.469 0.003 0.001 0.004 -0.000
4517 4 8.091 8.243 -0.551 -0.015 -0.005 -0.001 -0.000
8374 4 6.492 -1.248 -2.728 0.004 0.014 -0.002 0.000
1012 4 6.198 -2.286 2.008 -0.002 -0.001 -0.010 -0.000
1096 4 2.011 6.736 2.439 -0.007 0.006 0.007 -0.000
949 4 3.069 10.725 3.519 0.000 0.018 -0.003 -0.000
2007 4 2.740 2.589 8.770 -0.002 0.007 -0.004 0.000
2498 4 4.128 2.932 15.297 0.006 0.009 0.014 0.000
648 4 3.050 8.138 4.212 -0.000 -0.006 0.007 0.000
2860 4 6.711 4.085 -2.875 -0.000 -0.003 0.018 -0.000
3260 4 5.033 13.462 15.422 0.001 0.005 -0.005 -0.000
496 4 -1.556 6.478 6.053 -0.003 -0.004 0.002 -0.000
23707 4 2.306 7.760 6.192 0.003 0.001 0.007 -0.000
1220 4 6.339 5.381 12.227 0.001 -0.006 0.008 -0.000
2215 4 0.829 1.470 7.410 -0.001 -0.006 0.004 -0.000
10684 4 -2.513 5.066 1.506 0.007 0.007 0.008 0.000
202 4 5.435 3.143 7.001 0.004 -0.009 -0.019 -0.000
13199 4 7.867 -2.907 7.838 -0.000 -0.004 -0.005 -0.000
844 4 0.450 8.395 7.209 0.007 0.003 0.006 0.000
9122 4 13.790 -1.535 10.781 0.010 0.006 0.004 -0.000
4074 4 4.440 5.347 7.518 0.006 0.011 -0.009 0.000
19771 4 10.764 -0.684 4.809 0.004 -0.004 0.002 0.000
3365 4 10.107 5.293 12.405 0.009 0.001 -0.000 -0.000
1367 4 -1.853 3.496 10.875 0.001 0.001 0.002 0.000
13152 4 2.455 4.992 8.677 -0.003 0.003 0.001 -0.000
146 4 3.865 8.487 1.873 0.012 -0.002 0.013 -0.000
445 4 11.107 3.129 2.997 -0.003 -0.002 -0.005 0.000
4552 4 5.880 10.813 10.111 0.001 0.002 0.007 0.000
10334 4 12.327 11.192 11.519 -0.004 0.002 0.001 -0.000
6067 4 -1.318 7.069 16.873 -0.004 0.003 -0.003 -0.000
170 4 -0.074 9.929 -4.041 -0.006 -0.008 -0.002 0.000
9487 4 7.547 -1.729 -0.286 0.009 0.000 -0.004 -0.000
13597 4 7.610 5.455 5.035 0.009 0.006 -0.007 0.000
1801 4 9.114 6.617 3.234 0.001 -0.003 -0.011 -0.000
7718 4 3.143 8.699 18.901 0.010 -0.004 0.005 0.000
8731 4 -0.731 -2.711 6.701 0.005 -0.004 -0.006 -0.000
1807 4 -3.661 4.363 8.804 -0.010 0.002 0.007 0.000
23799 4 11.159 6.909 8.475 0.008 -0.006 0.006 0.000
18934 4 2.867 2.421 3.049 -0.013 0.008 0.003 -0.000
16297 4 10.087 4.689 16.468 0.010 -0.007 -0.000 -0.000
6029 4 -0.233 -0.950 10.550 0.001 0.004 -0.003 -0.000
12360 4 -0.601 6.234 1.698 0.001 0.005 0.005 -0.000
208 4 8.418 8.518 2.023 -0.002 -0.001 0.006 -0.000
18852 4 7.754 6.439 1.130 -0.002 -0.010 -0.005 -0.000
19667 4 -0.371 3.001 -2.841 -0.011 -0.001 -0.003 0.000
214 4 0.154 0.394 3.212 0.005 0.007 0.000 0.000
894 4 8.847 -0.488 -2.225 -0.009 0.004 -0.007 -0.000
2981 4 5.885 6.966 9.538 -0.004 0.001 -0.008 -0.000
9529 4 7.201 -3.793 -4.016 0.001 -0.003 -0.005 0.000
6589 4 1.396 9.948 13.446 0.004 0.004 -0.004 -0.000
9583 4 12.710 8.234 3.848 0.006 0.002 0.000 -0.000
9884 4 4.082 5.959 10.077 0.006 -0.005 -0.001 0.000
603 4 0.673 10.003 0.536 0.006 -0.002 -0.008 0.000
892 4 -3.437 1.100 7.525 0.002 -0.003 0.001 -0.000
614 4 0.447 6.703 4.289 0.006 0.010 0.003 -0.000
1330 4 12.176 3.046 15.350 0.024 0.001 -0.013 0.000
10296 4 3.009 4.672 16.415 0.015 0.003 0.007 0.000
19774 4 4.906 2.483 -1.762 0.007 -0.005 0.002 0.000
9966 4 11.551 -0.810 14.839 -0.003 -0.009 -0.006 0.000
1830 4 10.403 -1.811 -0.320 0.012 0.004 0.009 0.000
4480 4 2.248 4.162 10.837 -0.002 -0.006 -0.004 0.000
2093 4 5.794 8.255 7.510 -0.001 -0.004 -0.001 -0.000
8698 4 -4.370 -2.484 10.460 -0.016 0.000 0.004 0.000
19782 4 6.923 11.101 2.324 0.005 0.004 -0.005 -0.000
23396 4 -1.435 3.198 8.539 -0.006 0.001 -0.002 -0.000
7503 4 2.301 7.325 16.917 0.012 0.002 0.011 -0.000
528 4 9.329 5.825 9.726 -0.002 0.000 0.001 -0.000
6225 4 11.027 -0.768 12.305 0.003 0.013 -0.005 -0.000
1135 4 1.348 7.383 -0.011 0.008 -0.011 -0.004 0.000
201 4 5.923 7.494 0.706 -0.008 -0.003 0.004 -0.000
2853 4 4.607 6.972 16.469 0.008 -0.004 0.008 -0.000
1777 4 9.896 10.131 7.521 -0.003 0.002 0.002 -0.000
16004 4 -3.023 -1.354 15.742 -0.002 -0.002 -0.009 -0.000
6476 4 13.705 6.420 13.053 -0.006 -0.011 0.002 0.000
217 4 0.811 5.457 6.908 -0.002 -0.011 -0.005 0.000
27169 4 -1.524 0.216 -3.003 0.005 -0.000 -0.001 -0.000
11168 4 -2.310 3.890 5.723 0.000 -0.004 -0.005 0.000
22436 4 10.777 -3.559 5.846 0.008 -0.003 0.000 -0.000
173 4 11.487 0.815 7.028 0.006 -0.013 0.006 0.000
539 4 8.175 9.208 4.498 0.003 0.007 0.004 0.000
23635 4 4.394 8.777 10.510 0.005 -0.002 0.002 -0.000
8323 4 13.004 2.208 1.784 0.015 0.008 -0.002 -0.000
855 4 6.138 4.597 2.062 0.004 -0.003 -0.004 -0.000
3048 4 0.775 9.527 4.914 -0.002 -0.004 0.001 0.000
1221 4 8.125 12.361 -1.886 -0.012 -0.000 -0.005 0.000
5753 4 7.048 11.687 14.263 -0.005 0.004 0.002 0.000
19738 4 7.398 9.633 -2.529 0.005 0.007 0.006 -0.000
2811 4 3.277 5.498 18.813 -0.005 0.011 -0.008 0.000
2103 4 10.775 3.567 10.499 0.002 0.001 0.004 0.000
5473 4 3.168 12.585 0.498 -0.004 -0.014 -0.007 0.000
6878 4 4.169 -1.070 10.905 -0.006 -0.011 -0.007 -0.000
1011 4 -0.809 4.889 18.710 0.003 -0.009 0.006 0.000
3830 4 11.913 5.583 6.155 -0.000 0.015 -0.002 0.000
6872 4 -2.555 2.576 -1.310 0.000 0.009 0.005 -0.000
444 4 9.071 0.994 6.907 0.005 -0.005 -0.004 -0.000
1881 4 1.338 5.339 12.431 0.012 -0.008 -0.002 -0.000
2931 4 -3.138 0.811 14.415 0.004 0.002 -0.001 0.000
2647 4 4.969 4.288 4.794 0.002 -0.007 -0.007 0.000
6427 4 -2.371 8.142 10.612 0.005 0.008 -0.008 0.000
23813 4 -0.994 7.855 -0.559 -0.008 -0.005 -0.011 -0.000
2132 4 10.340 3.670 -3.273 -0.005 0.005 0.001 0.000
1364 4 0.459 8.069 15.169 -0.008 0.006 0.001 -0.000
8326 4 1.463 -0.066 12.412 0.003 -0.008 0.002 0.000
4599 4 5.592 6.578 -4.547 -0.010 -0.007 0.016 0.000
23835 4 1.928 3.665 -3.866 -0.000 -0.002 0.001 0.000
5235 4 0.216 4.093 9.580 -0.019 0.001 0.014 0.000
1249 4 10.406 9.007 0.053 0.007 -0.014 0.004 -0.000
424 4 12.674 2.057 8.684 0.001 0.006 0.006 -0.000
4476 4 9.676 1.657 20.366 -0.003 0.002 0.001 -0.000
1611 4 -2.683 -0.871 18.500 -0.001 -0.008 -0.001 -0.000
13143 4 -2.470 4.931 16.925 0.008 0.005 0.004 -0.000
17343 4 10.391 9.282 2.866 0.004 -0.001 0.010 -0.000
12796 4 2.978 3.546 6.110 -0.004 0.004 -0.003 0.000
12396 4 3.070 12.418 11.190 0.004 0.006 -0.004 0.000
1765 4 9.632 10.173 15.072 0.004 -0.005 -0.009 -0.000
1683 4 9.703 3.536 18.736 0.004 0.001 -0.005 -0.000
27579 4 1.305 4.329 2.814 -0.002 0.006 0.003 0.000
863 4 12.099 4.114 17.671 -0.005 -0.003 0.003 -0.000
9533 4 6.046 -1.048 8.975 -0.002 -0.001 -0.004 -0.000
16513 4 7.855 11.681 11.666 -0.012 0.001 -0.009 -0.000
6996 4 0.037 1.500 14.516 -0.007 -0.004 -0.001 0.000
19376 4 8.794 10.710 0.805 0.007 -0.003 -0.004 -0.000
12393 4 11.787 6.346 10.850 0.004 -0.012 0.002 0.000
3421 4 1.319 10.069 9.477 -0.003 -0.008 0.005 0.000
3435 4 9.006 7.311 11.388 -0.006 -0.005 0.006 0.000
2422 4 9.723 8.475 17.362 -0.004 0.004 0.014 -0.000
13116 4 1.098 3.710 14.459 -0.007 -0.009 -0.006 0.000
6953 4 -1.294 1.143 12.256 0.003 -0.006 0.016 0.000
525 4 6.650 8.533 11.518 0.003 0.004 0.007 0.000
2087 4 5.557 1.641 0.496 0.001 -0.007 -0.011 -0.000
133 4 9.178 5.783 7.016 -0.009 0.005 0.009 -0.000
9028 4 14.037 -2.186 13.437 -0.008 0.002 0.002 -0.000
13479 4 1.881 -0.953 1.516 0.005 -0.007 0.000 -0.000
22957 4 -2.915 -3.185 -5.512 -0.007 0.008 0.002 0.000
8965 4 6.594 3.968 -0.212 0.005 -0.007 0.003 0.000
505 4 3.285 10.098 12.206 0.002 0.013 -0.005 0.000
7072 4 0.555 1.172 17.906 -0.005 -0.004 -0.001 0.000
1409 4 8.396 1.108 13.998 0.012 -0.000 -0.005 -0.000
9886 4 1.849 -2.018 10.887 -0.004 -0.014 0.005 -0.000
564 4 4.330 6.031 2.689 0.008 -0.003 0.004 0.000
1329 4 13.432 14.749 0.787 0.009 -0.003 -0.005 0.000
1721 4 -0.792 -0.007 7.260 -0.008 0.004 -0.001 0.000
4313 4 -0.124 11.581 7.060 -0.008 0.003 -0.007 -0.000
571 4 10.328 -1.178 7.180 -0.000 0.001 -0.006 0.000
7019 4 -4.121 3.772 19.020 -0.005 0.006 -0.010 0.000
1443 4 10.544 7.410 4.842 0.005 -0.010 0.005 0.000
6539 4 3.063 12.666 13.873 -0.008 -0.010 0.008 0.000
1723 4 9.240 13.867 17.692 0.006 -0.002 -0.001 0.000
19342 4 11.554 5.597 3.654 -0.011 0.004 -0.005 0.000
16555 4 7.775 8.470 16.119 0.011 -0.000 -0.004 0.000
2124 4 3.627 0.833 13.551 -0.007 0.001 -0.007 0.000
3264 4 10.662 9.409 10.661 -0.003 -0.000 0.017 0.000
1336 4 8.290 7.787 7.962 0.008 0.002 0.015 0.000
27917 4 9.807 1.547 4.805 0.002 -0.002 -0.013 0.000
2526 4 -0.417 13.622 16.587 -0.013 0.003 0.014 -0.000
27690 4 4.091 -0.514 4.624 -0.007 0.002 -0.005 -0.000
2418 4 6.802 -3.072 12.041 0.004 0.001 0.002 -0.000
1774 4 7.984 2.840 11.163 0.010 -0.002 0.000 -0.000
1414 4 5.623 12.912 21.025 0.002 -0.000 -0.002 0.000
5463 4 7.500 7.115 19.450 -0.008 0.002 0.006 0.000
5068 4 2.923 11.591 19.104 0.000 -0.001 0.006 0.000
5000 4 3.662 4.625 -1.946 -0.004 -0.008 0.003 -0.000
18647 4 -4.663 9.942 1.023 -0.010 -0.010 0.003 0.000
6550 4 12.085 4.848 8.851 0.007 0.015 -0.003 -0.000
697 4 14.456 4.080 6.603 0.006 0.005 -0.009 -0.000
6154 4 8.854 -1.367 14.184 -0.007 0.002 -0.005 0.000
573 4 5.706 9.308 -4.307 0.002 -0.010 -0.010 -0.000
6673 4 4.751 7.057 12.423 0.005 0.001 -0.003 -0.000
178 4 13.686 8.960 12.757 0.000 -0.008 -0.001 -0.000
1216 4 12.520 1.294 4.186 0.003 -0.009 -0.010 0.000
3685 4 11.820 12.085 16.611 0.006 -0.005 -0.003 -0.000
58 4 12.086 11.079 8.785 -0.007 -0.007 0.002 0.000
3366 4 8.707 4.525 13.924 0.000 -0.004 0.008 0.000
2187 4 10.603 12.406 -2.454 0.001 0.011 0.001 -0.000
1708 4 9.618 12.459 7.098 0.010 -0.005 0.005 0.000
19488 4 2.883 10.033 -1.238 -0.000 0.009 -0.000 -0.000
5631 4 2.857 13.102 16.641 0.003 -0.008 0.010 0.000
5267 4 1.238 9.748 20.459 -0.007 0.000 0.000 0.000
2462 4 5.524 4.167 19.436 -0.004 -0.010 -0.006 -0.000
27566 4 2.045 4.629 0.798 -0.005 0.006 0.006 -0.000
18496 4 4.749 10.642 1.904 0.003 -0.013 -0.000 0.000
447 4 0.573 8.213 -2.234 -0.010 0.005 0.003 0.000
5359 4 0.780 4.367 20.503 0.001 0.011 0.010 0.000
2265 4 12.260 8.709 6.836 -0.006 -0.009 -0.004 0.000
15594 4 0.570 5.226 16.558 0.000 -0.000 0.008 -0.000
19223 4 3.088 1.295 -0.395 -0.006 0.002 0.000 0.000
31014 4 -0.629 -2.179 3.552 -0.009 0.003 -0.009 -0.000
1206 4 5.193 6.778 5.366 -0.008 -0.006 0.002 -0.000
5221 4 6.078 1.601 9.576 -0.010 0.005 -0.006 -0.000
3246 4 1.673 6.761 20.055 0.005 0.010 -0.003 0.000
19702 4 0.604 1.416 -1.229 -0.000 -0.006 0.008 -0.000
8682 4 7.533 6.846 13.560 0.009 0.001 -0.007 0.000
13194 4 2.129 8.078 11.331 -0.003 -0.002 0.005 -0.000
1735 4 7.238 0.199 1.903 -0.009 0.005 -0.005 0.000
10573 4 4.255 0.598 2.072 -0.003 -0.005 0.007 0.000
2185 4 8.838 2.811 9.032 -0.004 -0.005 -0.016 -0.000
9164 4 10.579 5.737 -2.965 -0.002 0.007 0.005 -0.000
2506 4 8.272 2.705 1.340 -0.003 0.006 0.002 -0.000
3678 4 11.412 5.339 14.170 0.007 -0.009 0.000 0.000
7471 4 -0.691 10.368 16.334 0.003 0.002 0.004 -0.000
4198 4 -4.137 -0.596 6.325 0.004 0.000 -0.001 -0.000
6472 4 6.197 -1.886 15.849 -0.005 -0.003 -0.005 -0.000
4910 4 -4.183 9.971 6.911 -0.003 -0.008 -0.005 0.000
16043 4 -0.448 0.071 16.120 0.005 -0.005 0.012 0.000
1285 4 -3.058 12.223 0.462 0.002 -0.005 0.003 -0.000
1701 4 8.072 8.755 -4.871 0.000 0.005 -0.010 0.000
19267 4 0.903 14.179 -2.495 0.005 0.002 -0.006 -0.000
1814 4 -1.316 10.162 1.405 -0.003 0.002 -0.000 0.000
10768 4 -0.650 -2.992 12.997 -0.008 -0.013 0.002 0.000
19309 4 1.819 3.643 -1.319 -0.001 -0.012 0.007 -0.000
3774 4 2.446 2.599 19.186 -0.006 0.005 -0.005 0.000
11888 4 10.286 -1.829 16.665 -0.011 0.007 -0.000 0.000
16893 4 0.120 -3.281 1.304 -0.001 -0.005 -0.004 -0.000
31200 4 -1.992 1.090 9.716 -0.002 -0.007 -0.003 0.000
55 4 14.739 2.823 16.515 0.008 -0.000 -0.001 -0.000
5516 4 -4.140 8.708 -1.618 0.004 -0.012 0.004 0.000
19264 4 7.123 11.326 -4.287 0.006 -0.003 -0.009 0.000
1829 4 11.551 12.512 1.692 -0.001 0.012 -0.006 0.000
3425 4 10.134 12.701 10.097 -0.003 -0.010 0.004 -0.000
2867 4 6.843 4.642 9.793 -0.005 0.011 0.001 0.000
5990 4 0.752 12.409 15.177 0.002 -0.002 0.001 0.000
19201 4 -0.082 5.872 -1.563 -0.010 0.014 -0.010 0.000
19406 4 -3.718 -1.608 -2.502 -0.006 0.004 0.008 0.000
12355 4 -2.344 -2.783 1.439 -0.002 -0.001 -0.006 0.000
1693 4 13.027 3.855 4.457 -0.007 0.012 -0.003 0.000
1643 4 4.102 1.446 17.264 0.006 0.008 -0.012 0.000
851 4 10.557 0.937 9.558 -0.013 0.003 -0.005 -0.000
4478 4 -1.947 -2.999 10.983 -0.002 0.015 0.005 0.000
806 4 -4.731 6.854 9.740 -0.008 -0.001 -0.014 -0.000
602 4 4.245 9.625 5.832 -0.003 0.004 0.000 0.000
20079 4 7.930 5.693 16.072 -0.014 0.003 0.001 -0.000
26733 4 3.041 1.258 -2.816 0.003 -0.009 -0.005 0.000
6911 4 3.726 -1.105 15.056 0.009 -0.009 0.002 -0.000
3608 4 7.997 -0.052 4.315 0.001 0.002 0.005 0.000
493 4 4.341 3.987 0.226 -0.002 0.002 0.004 0.000
46 4 0.852 1.991 1.410 -0.002 -0.001 0.011 -0.000
81 4 0.283 8.952 18.051 -0.004 0.007 -0.008 -0.000
11869 4 13.712 5.037 15.793 0.005 0.007 0.005 -0.000
11089 4 14.744 0.123 12.374 0.006 0.011 0.010 0.000
129 4 3.752 10.222 8.790 0.001 0.005 0.003 0.000
1098 4 5.633 10.624 7.541 -0.000 0.006 -0.001 0.000
27966 4 -1.211 14.831 6.788 0.007 -0.006 -0.001 -0.000
20669 4 13.969 0.989 14.943 -0.004 -0.005 -0.005 -0.000
5674 4 -1.071 6.279 14.025 -0.014 -0.002 0.003 -0.000
2817 4 2.623 -0.301 18.482 0.004 0.005 -0.004 0.000
1004 4 10.925 6.965 1.631 0.004 -0.011 0.004 -0.000
2221 4 0.362 -1.855 18.759 -0.004 -0.001 0.011 -0.000
4592 4 -0.314 11.713 9.322 -0.002 0.006 -0.003 0.000
19645 4 2.092 0.982 4.938 0.003 0.002 -0.001 0.000
487 4 5.845 10.124 -0.014 0.001 -0.002 -0.010 -0.000
19699 4 10.259 4.147 4.993 0.001 -0.014 0.001 -0.000
18845 4 -1.760 3.723 14.769 0.000 -0.009 -0.000 -0.000
20593 4 7.679 0.454 16.362 0.008 0.003 -0.002 -0.000
18924 4 -2.470 5.553 -1.057 -0.005 -0.003 -0.009 -0.000
6987 4 11.516 6.561 17.046 0.015 -0.001 -0.001 -0.000
10698 4 6.216 1.733 12.721 -0.007 -0.004 -0.009 0.000
6583 4 -2.098 2.434 18.305 0.009 0.001 -0.005 -0.000
19244 4 0.474 3.008 4.668 -0.004 0.008 -0.002 -0.000
18018 4 14.907 9.277 5.337 0.010 0.000 -0.008 -0.000
59 4 12.923 -0.935 2.534 -0.000 0.005 0.001 -0.000
1404 4 8.977 9.208 19.651 0.000 0.003 0.007 -0.000
7342 4 1.582 -2.043 16.350 0.002 0.003 0.005 -0.000
19764 4 -3.230 6.753 -5.761 0.003 0.010 0.005 0.000
410 4 8.283 -3.995 -0.847 0.010 0.008 0.003 -0.000
9124 4 10.088 1.049 16.973 0.003 -0.006 -0.005 -0.000
6100 4 -2.538 12.573 16.174 0.008 0.003 -0.004 -0.000
4428 4 7.300 1.122 -0.710 0.007 0.008 0.002 -0.000
2483 4 12.837 10.563 5.031 0.017 0.007 -0.005 0.000
18861 4 6.209 6.093 -1.421 -0.008 0.002 0.005 0.000
6913 4 4.172 11.026 15.480 0.003 0.006 -0.016 0.000
5464 4 0.045 11.306 19.231 0.001 0.010 0.002 0.000
8967 4 1.128 -0.599 -2.576 -0.002 -0.002 0.001 0.000
6470 4 0.505 1.694 10.350 0.011 0.001 -0.002 -0.000
23478 4 -0.640 8.047 12.765 0.000 0.003 -0.000 -0.000
9552 4 9.554 0.589 -0.162 0.004 0.013 0.000 -0.000
3284 4 9.471 6.062 18.498 -0.003 -0.003 0.003 -0.000
2521 4 11.996 2.873 20.107 0.004 0.007 0.001 -0.000
2152 4 13.141 4.940 1.949 -0.003 0.004 -0.002 -0.000
19656 4 8.498 5.472 -1.247 0.000 -0.006 -0.007 -0.000
3645 4 -1.583 -2.957 19.523 -0.003 0.003 0.007 -0.000
9252 4 -4.774 1.703 1.993 0.002 0.006 0.011 0.000
1051 4 5.428 11.201 -2.059 -0.004 -0.009 0.017 0.000
19743 4 14.492 7.167 2.878 0.003 -0.004 0.002 0.000
7837 4 5.427 7.094 19.461 0.005 -0.001 0.008 0.000
473 4 12.068 8.762 -1.690 0.001 0.012 -0.002 -0.000
26340 4 1.001 -2.875 -0.847 -0.009 -0.005 -0.000 0.000
1276 4 8.104 3.041 6.608 0.007 0.003 -0.004 0.000
1271 4 7.717 10.928 17.006 -0.000 -0.001 0.010 0.000
5711 4 -2.692 -0.293 2.607 -0.005 0.000 0.002 -0.000
13115 4 -2.642 -1.617 8.068 -0.006 0.003 -0.005 -0.000
2095 4 13.593 8.307 9.964 0.003 -0.002 -0.011 -0.000
2814 4 12.351 0.489 19.577 0.006 -0.002 0.002 -0.000
3362 4 10.856 7.661 19.692 -0.004 0.004 -0.001 -0.000
19253 4 3.341 -3.641 -1.270 0.006 -0.001 0.005 0.000
3401 4 5.034 12.971 18.017 -0.003 0.004 -0.003 0.000
1251 4 6.759 1.205 7.382 -0.001 0.007 -0.006 0.000
2857 4 3.059 6.649 14.241 -0.001 0.003 0.001 -0.000
2516 4 10.697 10.759 4.882 0.004 -0.004 -0.003 0.000
11147 4 8.056 0.259 11.389 -0.003 -0.002 0.001 -0.000
897 4 0.315 -0.624 5.472 -0.002 -0.002 0.008 -0.000
5343 4 -1.660 9.879 20.709 0.001 -0.010 0.007 0.000
10730 4 4.757 1.302 20.012 0.006 -0.012 0.006 -0.000
5060 4 -3.506 12.474 13.213 0.001 -0.001 -0.000 0.000
5878 4 5.475 13.208 -4.145 -0.002 0.004 -0.008 0.000
27926 4 2.101 -2.604 3.264 0.001 -0.000 0.002 -0.000
1331 4 5.115 -0.507 17.690 0.004 -0.004 0.001 -0.000
2133 4 2.635 -1.267 6.425 0.002 -0.003 0.000 0.000
5387 4 -3.814 4.947 11.515 -0.001 0.007 -0.000 0.000
19806 4 5.862 12.373 0.797 0.003 0.003 0.007 0.000
2118 4 7.596 12.124 8.980 0.002 0.006 0.011 0.000
2729 4 -0.185 9.607 11.365 0.000 0.013 0.000 -0.000
11066 4 14.034 3.342 13.891 0.001 -0.004 0.009 -0.000
2179 4 11.140 14.690 2.139 -0.004 0.007 -0.001 0.000
177 4 7.150 2.799 -5.538 -0.002 0.000 0.001 -0.000
2414 4 8.141 0.315 18.888 -0.005 0.010 0.007 -0.000
7219 4 -2.896 8.463 14.840 0.000 -0.008 0.002 -0.000
27909 4 11.730 0.614 -2.208 -0.000 -0.011 0.004 -0.000
18252 4 9.597 8.619 -2.838 0.005 0.002 -0.000 -0.000
945 4 12.950 8.482 1.051 -0.009 -0.003 -0.004 0.000
3085 4 10.787 1.651 12.583 0.005 -0.002 0.006 0.000
2802 4 14.225 7.527 16.722 -0.005 0.007 -0.005 0.000
8784 4 7.601 11.283 5.744 0.002 -0.000 -0.008 -0.000
5393 4 8.966 3.091 -0.832 0.007 -0.004 0.005 -0.000
6520 4 5.629 5.708 14.748 -0.000 -0.014 -0.006 0.000
7474 4 -2.523 12.515 5.064 -0.003 -0.003 -0.007 0.000
1704 4 3.199 -1.246 -1.078 0.005 0.009 -0.003 -0.000
7239 4 7.465 12.571 18.512 0.002 -0.003 -0.002 -0.000
4091 4 -0.587 3.191 16.787 -0.007 -0.004 -0.009 0.000
1380 4 -3.875 0.366 0.116 0.002 0.003 -0.002 -0.000
6552 4 5.279 11.967 4.277 -0.013 -0.000 0.010 0.000
7423 4 -2.698 3.514 20.561 -0.002 -0.003 0.011 0.000
930 4 -3.670 11.334 10.115 -0.001 0.011 0.001 -0.000
11088 4 1.616 -2.519 13.795 0.003 0.006 0.010 -0.000
14188 4 -3.944 7.578 16.926 0.003 0.001 0.004 -0.000
1293 4 -2.042 9.548 5.698 -0.003 -0.004 -0.002 -0.000
19697 4 8.493 4.663 -4.716 0.006 0.005 -0.004 0.000
1610 4 7.092 -1.023 6.449 -0.004 0.015 0.004 -0.000
4956 4 -1.489 3.912 3.487 0.003 -0.006 0.007 -0.000
2488 4 5.620 -2.916 4.691 0.008 0.012 0.001 0.000
127 4 14.677 14.092 6.451 -0.011 0.000 -0.003 0.000
14714 4 0.750 -3.384 5.203 -0.002 -0.001 -0.001 -0.000
150 4 7.450 3.415 3.990 -0.007 -0.002 0.004 0.000
9535 4 -2.694 8.765 -3.773 -0.007 0.006 -0.006 0.000
18446 4 10.859 -1.271 -3.737 -0.004 -0.002 0.002 -0.000
3375 4 5.523 0.789 15.443 -0.003 -0.003 -0.009 -0.000
18822 4 12.950 7.157 -3.799 0.011 -0.002 0.002 -0.000
19810 4 -4.558 10.183 -4.252 0.004 0.004 0.000 -0.000
2560 4 10.079 12.563 14.981 -0.000 -0.002 -0.009 -0.000
608 4 4.657 3.783 -4.219 -0.003 0.009 0.006 0.000
6239 4 11.041 8.361 12.718 -0.001 -0.013 0.001 0.000
10322 4 2.050 0.625 15.575 -0.007 0.000 0.001 0.000
13513 4 2.147 -0.129 9.494 0.003 -0.005 -0.003 -0.000
1386 4 -3.307 7.907 1.694 0.000 -0.009 0.002 0.000
4951 4 -1.549 11.859 11.339 -0.011 0.001 -0.010 -0.000
19613 4 7.664 6.785 -3.075 0.006 0.012 -0.010 -0.000
2495 4 13.289 9.703 19.419 -0.010 0.006 0.005 -0.000
10282 4 4.006 6.323 0.054 0.009 -0.001 0.008 -0.000
5715 4 -0.965 10.754 13.827 -0.006 0.007 -0.002 0.000
6150 4 -1.945 13.629 9.434 -0.007 -0.004 -0.003 -0.000
11592 4 4.697 -1.358 20.335 -0.015 0.011 0.001 -0.000
3217 4 5.370 -0.503 -0.440 -0.011 -0.012 0.003 -0.000
9970 4 10.562 -2.770 14.103 -0.000 -0.007 -0.007 0.000
27123 4 4.017 -2.286 1.111 0.003 -0.017 0.017 -0.000
19007 4 14.728 11.155 0.157 0.008 0.002 -0.013 0.000
1673 4 10.327 2.944 14.259 0.012 -0.002 0.009 -0.000
3022 4 14.700 12.575 8.510 0.001 -0.004 0.002 0.000
1819 4 11.176 -2.249 10.138 0.001 -0.005 -0.006 -0.000
926 4 8.610 -2.868 17.956 -0.007 0.014 -0.005 0.000
1684 4 4.093 -3.059 16.772 -0.001 0.003 -0.008 -0.000
2405 4 1.246 -3.501 20.807 -0.002 -0.004 -0.001 -0.000
7276 4 2.927 -2.853 18.708 0.007 -0.006 -0.008 0.000
7396 4 -2.314 11.330 18.645 0.003 0.002 -0.006 -0.000
8364 4 7.484 1.632 -3.098 -0.012 -0.002 0.007 -0.000
2668 4 7.842 9.504 9.230 -0.018 0.007 0.001 -0.000
13200 4 10.741 0.917 2.222 0.000 0.006 0.001 0.000
19731 4 -4.219 0.869 -2.687 -0.007 0.004 0.001 -0.000
19459 4 -4.128 13.048 -4.158 0.003 -0.010 -0.002 0.000
7787 4 -3.853 2.649 12.687 -0.011 -0.007 -0.001 0.000
9052 4 5.237 -2.649 7.104 0.003 -0.003 -0.002 -0.000
14345 4 12.417 -0.436 8.451 -0.005 -0.002 0.016 -0.000
2609 4 -3.712 5.633 14.640 -0.007 0.008 -0.006 0.000
6833 4 -3.862 3.176 15.518 0.000 0.000 0.009 0.000
4073 4 3.127 10.139 -4.255 -0.004 0.003 -0.011 0.000
899 4 10.835 3.302 7.260 -0.005 -0.003 -0.001 0.000
4477 4 -2.516 6.051 -3.211 -0.001 -0.007 0.001 0.000
3003 4 -4.259 0.909 17.149 -0.009 0.004 -0.006 0.000
11162 4 14.281 -1.102 16.240 0.001 0.010 -0.004 0.000
2895 4 11.260 12.992 18.655 -0.001 -0.009 -0.004 0.000
7379 4 -3.830 -3.245 21.127 0.005 0.004 -0.007 0.000
18858 4 6.368 12.939 7.121 -0.005 0.003 0.003 -0.000
9978 4 8.504 -0.985 9.532 0.005 -0.013 -0.009 -0.000
7320 4 3.413 -2.599 12.411 -0.009 -0.007 -0.002 -0.000
10769 4 12.336 -0.262 -0.074 -0.003 0.004 0.001 -0.000
6941 4 -4.282 1.454 19.859 0.001 0.005 -0.001 -0.000
4874 4 13.106 -0.166 -3.723 0.001 -0.001 -0.010 0.000
16564 4 4.974 0.398 -3.893 -0.002 -0.001 0.006 0.000
2865 4 12.453 8.061 14.828 -0.000 0.006 0.005 -0.000
13180 4 -2.940 -3.135 5.607 0.009 -0.001 0.010 -0.000
9402 4 3.190 -2.427 8.535 0.000 0.003 0.002 -0.000
4640 4 -3.723 10.120 3.406 -0.003 -0.014 0.005 0.000
27962 4 5.752 9.336 3.804 -0.003 -0.003 0.002 -0.000
13869 4 5.928 -2.813 18.462 0.001 0.003 0.005 0.000
18457 4 9.720 1.240 -4.072 0.002 -0.007 -0.007 -0.000
4914 4 1.496 14.782 14.454 0.012 0.001 0.004 -0.000
3057 4 8.763 -2.297 1.838 0.002 0.006 0.002 -0.000
2977 4 12.675 1.614 17.307 0.009 0.001 0.003 -0.000
2909 4 14.840 -0.499 18.860 -0.008 0.001 0.001 -0.000
2579 4 9.075 11.893 3.211 -0.004 -0.002 0.001 -0.000
20075 4 -0.636 -1.081 21.431 0.004 0.009 -0.001 -0.000
1050 4 5.195 13.738 -1.387 0.005 0.017 -0.005 -0.000
1263 4 14.105 -3.734 15.366 0.005 0.004 0.005 0.000
1402 4 -3.893 12.970 18.441 -0.010 0.001 0.001 0.000
16449 4 1.485 13.596 18.902 0.006 -0.004 0.012 0.000
8220 4 10.879 2.521 -0.459 0.016 -0.005 -0.001 -0.000
4556 4 -0.995 -2.435 16.870 0.002 0.005 0.002 0.000
23789 4 0.364 12.287 0.802 -0.004 0.002 -0.002 -0.000
815 4 9.257 -2.116 11.586 0.008 0.005 0.006 -0.000
4829 4 -2.042 10.690 -0.766 -0.007 -0.003 0.005 0.000
613 4 3.289 12.444 -2.583 0.001 0.001 0.008 -0.000
5755 4 -3.579 2.893 3.626 -0.007 0.003 -0.002 -0.000
140 4 10.125 11.111 12.583 -0.003 -0.004 0.010 0.000
2531 4 4.642 12.876 8.959 -0.001 0.011 0.007 0.000
27568 4 -0.776 -2.149 -3.425 -0.001 0.006 0.003 0.000
13958 4 -1.358 1.559 4.791 0.006 0.000 0.004 0.000
4038 4 -3.911 1.749 10.011 0.007 -0.006 0.000 -0.000
682 4 -1.964 14.149 -1.877 0.003 0.003 -0.011 -0.000
2427 4 13.037 14.032 15.392 -0.001 0.001 -0.007 0.000
3253 4 14.146 7.225 19.335 -0.002 0.004 -0.008 -0.000
6993 4 12.250 13.642 12.013 -0.005 0.004 0.001 -0.000
5627 4 -0.702 -0.813 13.777 0.001 0.002 0.012 -0.000
3017 4 2.193 12.434 8.731 0.004 -0.002 0.004 0.000
1231 4 14.188 2.488 18.975 -0.004 -0.015 0.001 -0.000
5758 4 1.830 12.175 5.682 0.007 0.001 0.005 0.000
1782 4 14.088 13.453 -2.013 -0.002 -0.001 0.011 0.000
6545 4 1.500 -4.114 7.399 -0.006 0.000 0.007 -0.000
846 4 11.717 10.847 -0.190 0.005 -0.016 0.002 -0.000
281 4 4.718 -3.513 -3.268 -0.002 0.004 0.011 0.000
1727 4 9.494 11.723 19.628 0.008 0.007 0.008 -0.000
5077 4 -0.032 13.752 4.355 -0.003 -0.001 0.004 -0.000
1781 4 10.955 13.341 4.314 -0.004 0.000 -0.008 -0.000
10005 4 10.506 7.785 -5.523 0.002 0.004 -0.007 0.000
1238 4 14.002 6.553 5.442 0.003 0.000 0.000 -0.000
19724 4 -0.111 4.060 0.012 -0.001 -0.001 -0.002 -0.000
6514 4 -2.991 6.096 18.851 0.006 0.003 -0.009 -0.000
5629 4 -3.793 -0.322 12.256 -0.004 -0.008 -0.017 0.000
591 4 13.618 6.265 -1.770 -0.003 -0.006 0.002 0.000
16110 4 14.492 12.491 18.680 -0.015 0.015 -0.004 -0.000
4825 4 4.835 -4.024 2.704 0.012 -0.008 -0.002 -0.000
6824 4 4.201 14.215 12.174 0.005 0.001 -0.000 0.000
3293 4 -3.656 -3.577 17.202 -0.007 0.001 0.014 0.000
8721 4 1.304 0.282 -4.851 0.001 -0.009 -0.003 0.000
4558 4 -2.154 9.003 18.444 0.008 0.008 -0.008 -0.000
8635 4 5.861 -2.829 -0.232 0.001 -0.002 -0.005 0.000
3468 4 12.100 9.150 16.864 -0.002 0.001 -0.007 -0.000
19682 4 12.400 2.300 -4.019 0.010 0.007 0.004 0.000
9573 4 13.596 -0.850 6.103 -0.003 -0.000 0.007 0.000
405 4 -1.080 13.891 19.369 0.001 0.011 -0.005 -0.000
803 4 -4.802 3.189 6.634 -0.005 0.001 0.000 -0.000
4839 4 0.969 -4.117 17.562 -0.018 -0.010 0.004 -0.000
642 4 7.530 11.031 20.659 -0.001 -0.000 0.016 0.000
6923 4 12.613 14.642 17.701 -0.004 -0.004 -0.006 0.000
3271 4 14.321 -3.672 4.422 0.004 -0.005 0.000 -0.000
22999 4 -2.053 1.957 -4.974 -0.007 -0.001 0.003 0.000
174 4 4.236 13.353 2.875 -0.004 0.009 0.006 -0.000
8757 4 12.467 12.621 6.802 0.009 -0.004 -0.007 0.000
190 4 13.747 2.024 -0.282 0.004 0.001 0.005 -0.000
164 4 -0.667 13.800 13.130 -0.001 -0.007 -0.002 -0.000
23831 4 9.047 12.953 0.730 0.002 0.005 0.006 -0.000
19437 4 13.087 13.187 3.230 -0.001 0.005 0.004 0.000
1448 4 -3.617 15.235 8.293 0.005 0.002 0.004 0.000
12752 4 -2.844 9.856 12.607 0.003 0.001 -0.001 0.000
19304 4 -1.351 12.677 2.524 0.002 0.001 0.004 0.000
10657 4 6.463 1.876 17.791 0.005 -0.002 0.002 -0.000
8769 4 -3.405 6.959 7.649 -0.007 -0.002 -0.001 -0.000
4033 4 0.153 5.752 -4.038 0.012 -0.004 0.001 0.000
2420 4 8.794 -2.486 5.347 0.005 -0.001 0.002 0.000
42 4 -3.651 10.083 16.689 -0.001 0.005 0.005 0.000
777 4 10.823 14.090 -0.491 -0.007 -0.010 -0.008 0.000
6549 4 4.091 -3.963 21.181 0.007 -0.004 0.001 -0.000
19922 4 12.807 4.538 -5.081 0.001 0.007 -0.009 0.000
8654 4 12.932 -4.177 -3.777 -0.002 -0.004 -0.008 -0.000
4461 4 -2.331 15.221 17.310 0.005 0.009 -0.002 -0.000
5274 4 9.993 -0.914 19.187 0.006 0.003 -0.001 -0.000
4954 4 -3.641 12.555 7.552 0.010 -0.011 -0.002 -0.000
17747 4 12.987 -1.761 -2.211 -0.006 -0.008 0.012 -0.000
20276 4 -1.879 0.962 19.830 -0.002 -0.004 -0.001 0.000
5838 4 14.527 9.593 15.266 0.019 0.008 -0.001 -0.000
27524 4 -3.196 3.495 -3.747 0.000 -0.017 -0.000 -0.000
6505 4 7.742 13.563 15.638 -0.009 0.004 -0.005 0.000
645 4 3.729 15.055 -2.562 0.004 -0.006 -0.003 -0.000
6216 4 0.909 14.006 7.626 -0.006 -0.005 -0.003 -0.000
660 4 5.935 -1.850 -5.227 -0.005 -0.002 0.000 0.000
2169 4 0.923 0.718 20.359 0.000 0.002 -0.002 0.000
820 4 2.249 -2.313 -3.070 0.003 -0.004 -0.001 0.000
5036 4 3.683 14.744 7.395 0.006 -0.005 0.001 0.000
19684 4 12.836 4.084 -2.367 0.013 0.000 -0.000 -0.000
19734 4 -4.180 3.491 0.133 -0.004 -0.000 -0.016 -0.000
1005 4 11.043 9.915 21.360 -0.008 -0.005 -0.003 0.000
2847 4 14.707 1.282 20.737 -0.005 -0.002 0.002 0.000
2864 4 10.427 14.664 20.446 -0.004 0.000 0.002 0.000
2058 4 13.443 -2.723 8.835 -0.009 0.008 -0.002 -0.000
1406 4 5.458 -3.595 9.493 0.005 -0.004 -0.013 0.000
8809 4 -2.259 11.653 -4.284 0.002 0.002 0.004 0.000
498 4 13.081 12.754 -4.363 -0.002 0.005 0.011 0.000
19213 4 -2.041 4.678 -5.398 0.001 -0.009 -0.003 0.000
5709 4 -3.669 7.498 12.281 0.002 -0.006 0.006 0.000
24288 4 -2.095 -3.723 15.108 -0.004 -0.010 0.003 -0.000
8681 4 -4.453 -1.865 0.905 0.003 0.001 0.004 -0.000
1794 4 1.663 14.920 11.833 -0.001 -0.004 -0.009 -0.000
3683 4 9.576 6.483 21.106 0.002 -0.012 0.006 0.000
27522 4 -4.026 8.289 4.874 -0.004 0.000 -0.000 0.000
14081 4 12.498 -1.229 17.907 -0.013 0.007 0.010 0.000
7742 4 3.602 13.869 19.988 0.002 -0.007 0.004 -0.000
654 4 7.972 -1.614 -4.849 0.005 -0.004 -0.003 -0.000
9946 4 13.169 -1.943 20.322 -0.004 -0.008 -0.009 0.000
9977 4 13.751 -2.215 0.276 0.006 0.008 0.000 -0.000
2208 4 -4.192 10.858 20.513 -0.012 0.005 -0.001 -0.000
19820 4 12.400 9.100 -5.067 0.004 0.009 0.002 -0.000
19353 4 15.076 6.197 -5.446 -0.001 -0.004 -0.005 0.000
1292 4 9.605 13.562 12.913 -0.007 0.001 0.002 -0.000
18825 4 9.744 -3.500 -4.536 0.002 0.004 0.006 0.000