ITEM: TIMESTEP
43000
ITEM: NUMBER OF ATOMS
32000
ITEM: BOX BOUNDS pp pp pp
-5.606817 76.086817
-4.067983 74.547983
-5.796197 76.276197
ITEM: ATOMS id type x y z vx vy vz q
531 4 0.547 7.052 10.194 -0.011 0.008 0.001 0.000
1767 4 12.085 10.015 2.196 -0.008 -0.001 0.006 -0.000
2528 4 5.889 2.167 11.642 0.011 -0.012 -0.009 0.000
9974 4 -3.480 -1.027 0.073 -0.007 -0.002 0.002 0.000
6480 4 -2.039 -2.087 2.181 -0.000 -0.015 0.009 -0.000
1282 4 3.361 7.893 6.473 -0.000 -0.006 0.001 0.000
19408 4 4.904 14.328 8.162 -0.006 -0.003 0.010 -0.000
565 4 12.173 3.125 -5.226 -0.001 0.004 -0.008 0.000
5360 4 2.242 3.683 20.468 -0.010 0.007 -0.001 -0.000
19490 4 0.720 9.199 12.061 0.008 -0.017 -0.012 -0.000
19217 4 10.756 1.272 7.663 0.001 0.012 -0.006 0.000
23469 4 1.807 7.403 0.262 -0.001 -0.005 0.009 0.000
490 4 -2.276 6.458 0.502 0.004 -0.006 0.004 0.000
19282 4 1.718 9.091 2.552 0.003 -0.003 0.004 0.000
2126 4 1.729 8.194 14.984 0.001 0.002 0.008 -0.000
404 4 -0.891 3.644 5.668 -0.008 0.013 -0.004 -0.000
3307 4 -1.473 0.650 9.691 -0.002 -0.001 -0.002 -0.000
526 4 11.425 11.150 10.135 -0.009 -0.002 0.000 -0.000
18442 4 8.122 3.027 -1.272 0.002 -0.002 0.003 0.000
10374 4 10.990 7.976 6.451 -0.007 0.004 -0.005 -0.000
4517 4 11.005 4.920 4.302 0.005 -0.003 0.000 0.000
1096 4 13.260 2.630 5.303 0.016 0.000 -0.001 0.000
2007 4 3.089 1.228 11.204 0.001 0.005 0.006 -0.000
648 4 5.533 7.867 5.073 0.001 -0.009 0.004 -0.000
23707 4 -0.763 13.839 5.865 -0.003 0.005 0.006 -0.000
2215 4 7.641 -0.860 -0.203 -0.001 -0.004 0.001 0.000
10684 4 4.672 -0.441 7.904 -0.003 0.006 -0.003 -0.000
202 4 6.391 5.551 2.596 0.006 0.004 -0.004 -0.000
844 4 8.435 11.108 4.094 0.005 -0.003 -0.011 0.000
4074 4 4.952 5.903 7.002 -0.006 -0.003 0.000 -0.000
3365 4 0.204 4.018 12.328 0.007 -0.002 -0.000 -0.000
13152 4 -3.427 4.886 9.049 -0.002 -0.006 0.000 -0.000
445 4 13.830 -0.372 -0.908 0.004 -0.001 0.003 -0.000
13597 4 8.439 1.153 6.816 0.001 -0.008 -0.003 0.000
7718 4 7.803 6.440 11.860 -0.001 -0.005 -0.001 -0.000
8731 4 11.065 3.549 13.927 -0.008 0.007 -0.004 -0.000
18934 4 1.673 2.293 -3.788 -0.007 -0.003 0.000 0.000
6029 4 8.795 2.825 8.697 -0.007 -0.006 -0.011 0.000
12360 4 0.576 4.635 -3.292 -0.004 -0.001 -0.001 -0.000
18852 4 10.865 7.865 0.971 -0.002 -0.004 -0.013 -0.000
894 4 5.940 1.050 6.362 -0.013 -0.004 -0.007 -0.000
2981 4 1.460 10.448 10.027 -0.004 -0.000 0.001 0.000
6589 4 2.944 10.761 15.154 -0.005 0.012 0.006 0.000
9884 4 -4.382 7.377 7.283 0.005 0.008 0.000 -0.000
614 4 1.737 6.453 2.750 -0.007 0.006 -0.007 -0.000
10296 4 0.824 11.305 13.864 0.016 0.004 0.005 0.000
4480 4 6.104 4.886 11.519 0.002 0.007 0.005 0.000
2093 4 8.238 12.387 12.442 0.002 -0.002 0.000 -0.000
19782 4 7.788 8.743 4.425 -0.003 -0.009 0.004 -0.000
23396 4 2.458 6.215 7.956 -0.005 -0.004 0.006 0.000
201 4 5.879 -0.229 1.782 0.003 0.005 -0.012 -0.000
1777 4 7.163 7.404 6.658 -0.003 0.006 0.002 0.000
217 4 1.172 4.789 9.833 0.001 0.001 0.004 0.000
27169 4 1.333 4.596 0.364 0.003 0.011 -0.014 0.000
173 4 7.490 3.527 1.314 0.003 0.004 0.002 0.000
539 4 9.181 9.202 1.901 -0.004 0.011 -0.002 -0.000
855 4 7.657 5.637 8.934 -0.001 0.005 0.002 0.000
3048 4 0.503 14.029 9.066 0.006 0.007 0.011 0.000
2103 4 13.440 1.819 7.839 -0.001 -0.006 0.001 0.000
5473 4 -1.064 10.164 2.840 0.020 0.003 -0.004 -0.000
3830 4 10.333 4.612 11.150 0.008 -0.008 0.000 0.000
2647 4 4.559 5.398 4.228 0.011 0.007 0.011 0.000
1364 4 10.934 6.313 12.746 0.006 -0.005 -0.007 0.000
8326 4 6.099 1.599 9.169 -0.007 -0.000 -0.002 -0.000
424 4 10.477 -2.434 9.845 -0.006 -0.002 -0.005 0.000
12796 4 3.635 -1.920 16.176 -0.001 -0.007 0.015 0.000
12396 4 9.684 14.829 13.015 0.005 0.007 -0.004 0.000
27579 4 4.544 2.732 4.482 -0.003 0.001 -0.008 -0.000
16513 4 5.597 9.122 7.558 0.004 -0.002 -0.002 -0.000
19376 4 8.542 3.776 -4.320 -0.003 0.000 0.008 -0.000
3435 4 -1.608 8.793 10.400 -0.004 -0.004 -0.012 -0.000
2422 4 9.093 10.401 10.749 -0.004 0.002 0.010 -0.000
13116 4 7.092 5.352 14.305 -0.002 -0.003 -0.000 0.000
9886 4 5.008 6.339 13.559 -0.006 -0.009 0.001 -0.000
564 4 10.584 1.847 5.428 -0.004 0.002 0.007 0.000
4313 4 4.575 8.985 2.413 -0.005 0.001 -0.008 -0.000
7019 4 0.154 11.874 18.816 -0.001 -0.008 0.008 -0.000
1443 4 2.912 4.152 6.108 0.004 0.003 -0.006 -0.000
16555 4 11.174 6.357 8.712 -0.009 -0.008 -0.006 0.000
2124 4 4.101 11.578 16.919 -0.005 0.004 -0.005 0.000
1336 4 2.290 12.954 15.643 -0.002 0.012 0.003 0.000
1774 4 6.823 -0.631 12.367 -0.007 0.001 -0.011 -0.000
5068 4 9.198 12.570 14.913 -0.003 0.006 -0.004 -0.000
6550 4 8.796 -0.808 3.330 0.001 0.010 -0.004 0.000
6154 4 -0.269 3.617 8.267 0.003 0.003 0.005 -0.000
573 4 6.815 8.825 -5.117 0.006 -0.004 -0.004 0.000
6673 4 2.822 10.119 4.516 -0.003 0.002 0.005 -0.000
178 4 4.506 6.759 9.134 0.005 -0.002 0.009 0.000
1216 4 3.970 -0.616 0.970 -0.005 -0.002 0.001 0.000
5267 4 2.738 4.283 16.670 0.007 0.001 -0.000 -0.000
27566 4 -1.174 8.691 0.070 0.004 -0.001 0.006 -0.000
18496 4 2.979 7.606 3.956 -0.000 -0.012 -0.000 -0.000
447 4 2.294 1.577 2.089 0.009 0.005 -0.003 -0.000
15594 4 -1.566 6.079 12.053 0.003 0.002 -0.001 -0.000
19223 4 -0.609 10.455 8.268 0.002 0.010 -0.002 0.000
1206 4 8.610 7.104 16.402 -0.008 0.015 -0.011 -0.000
3246 4 5.917 11.986 7.625 -0.006 -0.009 0.000 0.000
8682 4 2.729 8.334 10.658 0.012 -0.002 -0.006 0.000
9164 4 9.350 1.098 -0.800 -0.002 -0.001 0.005 -0.000
7471 4 5.089 9.069 16.368 -0.004 -0.000 0.003 0.000
6472 4 11.718 -1.836 12.664 0.001 0.004 0.005 -0.000
16043 4 6.349 -0.166 14.706 -0.000 0.005 0.009 0.000
19309 4 0.351 3.806 3.081 -0.002 -0.001 -0.000 -0.000
11888 4 11.515 8.723 16.233 0.004 0.007 0.007 0.000
1643 4 5.099 -0.432 11.012 0.004 0.007 0.000 0.000
6911 4 7.619 4.266 16.378 0.007 0.003 -0.001 -0.000
46 4 -2.454 2.476 7.916 -0.001 -0.011 -0.003 0.000
81 4 -2.817 8.211 15.303 -0.004 0.001 0.005 0.000
1098 4 -3.474 4.048 6.303 0.009 0.005 0.004 -0.000
20669 4 13.789 4.180 14.211 0.009 -0.001 0.001 -0.000
5674 4 2.537 7.074 12.572 -0.001 -0.000 -0.019 -0.000
2221 4 0.595 3.670 15.506 0.001 0.007 0.001 0.000
19645 4 9.462 4.019 6.249 0.013 0.004 -0.002 -0.000
487 4 7.212 10.518 6.320 0.008 -0.000 0.006 -0.000
19699 4 8.749 4.343 3.632 0.014 0.002 -0.004 -0.000
18845 4 6.870 9.873 12.365 -0.003 0.018 -0.006 -0.000
6987 4 9.110 2.544 20.444 0.001 -0.007 0.002 0.000
10698 4 4.234 5.197 19.557 0.011 -0.007 0.002 0.000
19244 4 7.896 1.002 1.420 -0.001 0.002 0.001 -0.000
1404 4 9.156 7.586 7.862 0.007 0.009 0.000 -0.000
4428 4 10.046 -1.472 -0.802 0.006 0.004 -0.004 0.000
18861 4 9.392 4.627 0.082 0.007 -0.008 -0.001 -0.000
6913 4 11.964 7.667 10.661 -0.009 -0.002 -0.012 -0.000
6470 4 7.574 1.360 16.776 -0.003 -0.004 0.011 -0.000
23478 4 9.253 10.497 13.325 0.001 -0.006 -0.010 0.000
2152 4 14.005 8.091 -4.647 -0.006 -0.000 0.006 -0.000
19656 4 12.232 7.363 -3.192 -0.010 -0.004 0.005 0.000
1276 4 8.196 7.690 -0.083 -0.005 0.015 0.004 0.000
3362 4 7.339 9.062 17.488 -0.005 0.002 0.006 -0.000
1251 4 8.279 1.342 12.298 -0.002 0.005 0.003 0.000
2857 4 -3.245 8.085 12.932 -0.010 0.009 0.011 -0.000
2516 4 7.528 8.178 9.964 0.001 0.004 0.010 0.000
11147 4 4.730 0.942 13.459 0.002 -0.004 0.003 0.000
5387 4 4.469 3.387 13.497 0.002 -0.002 -0.000 -0.000
19806 4 10.239 8.624 -1.473 0.008 -0.001 -0.002 -0.000
2118 4 8.009 0.821 10.127 0.003 -0.006 0.003 0.000
2729 4 3.049 9.975 12.754 -0.004 -0.006 0.002 0.000
11066 4 13.981 -1.672 12.760 -0.006 0.013 -0.001 0.000
2414 4 2.110 6.332 19.074 -0.010 0.005 0.003 -0.000
3085 4 6.844 3.567 7.088 0.008 -0.010 0.007 0.000
7474 4 -0.528 5.750 3.838 -0.001 0.004 -0.006 -0.000
1293 4 -1.908 10.163 5.654 0.011 -0.002 -0.004 0.000
150 4 7.909 -1.299 5.608 -0.003 0.002 0.002 0.000
6239 4 9.562 7.901 10.585 0.004 0.009 -0.001 -0.000
10322 4 -1.077 -1.034 14.361 -0.005 0.006 -0.003 0.000
13513 4 1.707 -0.465 9.809 0.009 -0.010 0.001 -0.000
10282 4 10.831 8.158 3.780 -0.004 0.009 0.001 -0.000
9970 4 3.444 6.747 15.684 0.007 0.005 0.011 0.000
1673 4 12.900 0.531 5.724 0.007 0.004 0.007 -0.000
926 4 8.417 -1.835 14.413 -0.001 0.004 0.002 -0.000
8364 4 10.933 -0.012 1.103 -0.001 0.001 -0.007 0.000
2668 4 8.758 10.365 -0.573 0.016 -0.000 -0.001 -0.000
7787 4 -2.681 6.174 5.636 0.001 0.006 -0.009 0.000
9052 4 -0.270 0.489 2.696 -0.008 -0.001 -0.002 -0.000
14345 4 10.332 1.959 10.343 0.006 0.000 -0.000 0.000
6833 4 7.039 3.180 18.943 0.004 0.004 0.008 0.000
4073 4 1.803 2.035 -0.403 0.023 -0.003 -0.002 0.000
899 4 9.294 2.277 15.254 -0.001 0.013 0.005 0.000
2895 4 5.216 15.625 12.821 0.003 0.007 0.002 0.000
18858 4 9.198 6.761 2.541 -0.002 0.008 -0.003 -0.000
4640 4 -0.363 9.232 -2.432 -0.007 -0.001 0.000 0.000
27962 4 5.188 6.883 0.921 -0.010 0.000 0.002 0.000
815 4 7.907 3.660 11.010 0.005 0.008 0.008 -0.000
5755 4 2.772 0.563 -1.688 0.002 0.008 0.007 -0.000
2531 4 5.495 10.229 4.509 -0.009 0.002 -0.001 0.000
13958 4 2.156 -0.567 4.093 0.003 -0.009 0.005 0.000
846 4 9.283 6.794 5.234 -0.001 -0.004 -0.001 -0.000
281 4 4.477 0.641 3.697 -0.004 -0.004 -0.013 -0.000
4558 4 6.691 13.072 10.048 -0.002 -0.007 -0.004 0.000
3468 4 6.829 8.412 15.080 -0.001 -0.003 -0.002 0.000
174 4 -1.410 11.105 0.421 -0.004 0.003 0.011 0.000
8757 4 12.800 9.411 5.251 -0.004 -0.004 -0.002 0.000
12752 4 5.289 4.000 9.009 0.005 0.000 -0.000 -0.000
777 4 1.212 11.245 -2.682 0.002 0.005 -0.005 -0.000
20276 4 4.149 0.595 16.172 -0.000 -0.014 -0.010 0.000
5709 4 1.473 6.308 5.811 -0.004 0.016 0.005 0.000
27522 4 7.224 5.509 4.970 0.009 -0.002 -0.004 0.000
962 4 1.508 15.321 3.963 0.002 0.023 -0.004 0.000
6717 4 2.860 8.662 20.088 -0.000 -0.011 0.001 -0.000
16548 4 -2.296 10.798 -1.711 -0.003 0.020 0.001 0.000
251 4 13.177 3.657 -1.700 0.014 -0.021 -0.013 0.000
2524 4 -0.566 -1.562 8.574 0.004 0.005 -0.005 -0.000
16122 4 7.341 11.135 14.443 0.008 -0.010 0.003 0.000
1009 4 6.138 13.217 4.915 -0.008 0.014 -0.002 0.000
4440 4 0.811 1.953 9.969 0.019 0.006 -0.003 -0.000
1900 4 8.826 6.398 -4.407 -0.005 0.000 -0.001 0.000
3429 4 2.541 12.643 3.351 0.003 -0.000 0.001 -0.000
2179 4 11.040 11.311 4.573 0.000 0.002 0.001 -0.000
5760 4 -1.657 7.762 7.406 0.001 -0.007 -0.004 0.000
7182 4 2.540 13.653 13.575 0.007 0.006 -0.001 0.000
19734 4 2.659 3.519 -2.172 0.000 0.003 -0.003 0.000
1614 4 11.030 5.555 15.982 0.001 -0.003 -0.004 0.000
1291 4 10.808 0.329 14.233 -0.005 -0.012 -0.000 -0.000
403 4 12.290 -0.741 7.723 -0.003 -0.001 -0.005 0.000
3420 4 10.943 8.970 13.957 0.001 0.002 0.001 0.000
10758 4 9.047 4.728 13.326 -0.000 -0.001 -0.000 -0.000
17209 4 5.044 2.071 -0.624 -0.003 0.013 0.008 0.000
10005 4 9.458 11.455 -3.910 0.009 0.012 -0.000 -0.000
19801 4 2.338 1.531 14.757 -0.004 -0.001 0.003 0.000
11568 4 4.871 8.742 14.217 -0.003 0.009 -0.004 -0.000
14714 4 2.247 2.722 4.317 -0.008 -0.005 0.005 -0.000
11162 4 14.565 -3.242 18.408 0.005 -0.003 0.004 0.000
6274 4 2.444 8.396 -2.569 0.002 -0.001 -0.003 -0.000
9685 4 1.017 9.777 -0.230 -0.004 0.000 -0.007 0.000
9946 4 10.093 1.308 18.256 -0.001 0.000 0.006 0.000
7065 4 -3.097 8.684 1.756 -0.008 -0.006 -0.000 0.000
421 4 7.158 -0.689 8.189 0.011 -0.000 -0.004 -0.000
19613 4 11.285 5.872 -1.066 -0.002 -0.002 -0.005 0.000
9137 4 13.767 3.217 16.879 0.010 0.004 0.013 0.000
19353 4 7.397 9.782 -2.491 -0.008 0.005 0.003 0.000
503 4 10.539 4.277 8.723 -0.006 -0.010 -0.006 -0.000
810 4 7.730 5.928 18.398 0.003 0.007 0.000 0.000
27123 4 -1.963 2.965 3.180 0.007 -0.003 -0.007 0.000
41 4 12.665 7.054 18.013 -0.002 0.004 0.006 -0.000
3271 4 4.848 2.719 2.067 0.003 0.005 -0.003 -0.000
1240 4 6.925 10.366 1.676 0.011 -0.001 0.005 0.000
6877 4 -1.905 10.305 11.762 0.007 -0.000 0.000 0.000
847 4 6.727 8.197 2.554 0.007 -0.003 -0.007 0.000
406 4 9.656 8.484 -4.294 -0.002 0.004 0.006 -0.000
9486 4 -2.487 11.854 9.678 0.005 -0.004 0.000 0.000
3003 4 3.575 -2.974 18.794 -0.003 0.002 0.011 -0.000
27130 4 7.181 2.188 3.639 -0.006 0.009 -0.009 0.000
19737 4 2.121 11.975 0.846 0.005 -0.001 0.008 -0.000
5000 4 4.342 11.613 5.709 -0.004 -0.010 -0.008 -0.000
5838 4 11.518 11.774 16.258 0.001 0.005 -0.003 0.000
11139 4 12.204 0.841 11.806 0.006 -0.006 0.005 -0.000
17820 4 8.941 5.306 -1.889 0.002 0.001 0.000 0.000
13075 4 6.603 4.851 -3.264 -0.009 -0.006 0.007 0.000
14716 4 10.535 -0.427 6.091 -0.005 -0.002 -0.013 -0.000
214 4 2.191 -0.973 7.123 0.001 0.004 0.005 -0.000
1369 4 13.103 4.697 19.292 0.008 -0.006 0.008 0.000
8698 4 3.106 0.017 20.391 0.009 -0.001 0.004 -0.000
4353 4 6.992 7.561 -2.811 -0.007 0.006 -0.005 -0.000
1708 4 11.112 10.186 -0.091 0.005 -0.002 0.004 0.000
7415 4 2.796 11.803 18.896 0.009 -0.006 0.005 0.000
2909 4 12.298 -0.316 17.915 -0.001 0.000 -0.004 0.000
9921 4 2.189 5.619 -1.754 -0.001 0.003 0.010 -0.000
1285 4 -5.091 11.363 -1.963 0.004 -0.008 0.000 -0.000
2462 4 5.805 6.305 16.150 0.001 0.004 -0.004 -0.000
10657 4 5.064 7.878 11.783 0.002 -0.001 0.010 -0.000
6139 4 5.626 -1.065 17.257 0.001 0.008 -0.002 -0.000
3286 4 5.961 7.555 18.383 -0.006 -0.002 0.006 0.000
3134 4 -1.707 2.923 16.334 0.003 -0.014 -0.004 0.000
1692 4 -0.313 1.370 -2.322 0.003 -0.001 0.000 -0.000
22878 4 -0.412 7.644 2.107 -0.003 -0.005 -0.004 0.000
3217 4 12.546 1.547 2.996 0.002 0.001 0.003 -0.000
19887 4 4.466 4.442 0.014 0.001 0.002 0.004 -0.000
4078 4 3.655 5.622 11.090 -0.001 -0.001 0.004 -0.000
4552 4 9.381 9.481 5.922 0.002 -0.001 -0.000 0.000
18510 4 9.500 1.611 -3.163 -0.016 0.008 0.002 0.000
13997 4 0.588 0.857 7.975 -0.013 -0.001 -0.003 0.000
13199 4 13.902 1.823 0.651 -0.004 0.009 -0.003 0.000
4910 4 -3.037 0.678 -1.562 0.008 -0.004 -0.003 0.000
13594 4 7.168 2.782 13.891 0.001 -0.004 0.003 -0.000
19281 4 -4.957 -1.207 -2.479 -0.001 0.006 0.004 0.000
7837 4 8.946 11.110 17.452 0.010 0.004 -0.004 -0.000
19682 4 11.012 -0.513 -3.104 0.009 0.007 -0.005 -0.000
1930 4 3.886 14.517 6.262 0.003 0.008 -0.010 -0.000
20184 4 -5.293 11.650 5.618 -0.000 -0.005 -0.004 0.000
3010 4 6.588 5.415 -0.700 -0.002 0.003 -0.003 -0.000
5020 4 1.081 0.776 5.574 0.007 -0.001 -0.000 0.000
2832 4 6.752 5.247 20.220 -0.008 -0.004 0.001 -0.000
1651 4 -1.370 1.315 5.207 0.008 0.011 0.003 -0.000
5357 4 -0.330 1.479 0.339 0.007 -0.004 -0.009 0.000
18622 4 5.052 9.163 -2.466 -0.004 0.002 0.002 0.000
6431 4 1.697 -2.709 8.903 0.004 0.004 -0.001 -0.000
2412 4 0.371 10.292 16.518 -0.007 0.001 0.010 -0.000
8374 4 5.224 -0.495 -1.145 -0.011 -0.008 -0.002 0.000
55 4 8.062 10.822 8.265 -0.003 0.001 0.010 0.000
9924 4 -0.344 6.762 -3.897 0.007 0.001 0.002 0.000
2108 4 9.740 3.753 17.854 -0.000 -0.001 -0.000 -0.000
4995 4 1.120 14.949 6.819 0.007 0.001 -0.009 -0.000
5739 4 2.960 9.283 8.502 -0.003 0.000 -0.010 -0.000
164 4 -2.974 10.901 7.491 0.001 0.004 0.006 -0.000
1249 4 10.606 3.485 -1.899 0.005 0.004 0.004 -0.000
1386 4 -1.636 1.790 -4.590 0.011 0.009 -0.008 -0.000
24233 4 10.007 -1.614 18.474 0.009 -0.007 0.003 -0.000
1046 4 10.332 13.591 10.902 0.012 0.007 0.009 0.000
1331 4 5.397 4.741 17.688 -0.000 0.000 -0.004 -0.000
163 4 -5.284 -2.054 6.283 -0.001 -0.003 -0.005 -0.000
2208 4 -2.977 9.403 17.794 -0.005 -0.008 -0.008 0.000
27247 4 2.642 -2.161 -0.930 0.007 0.008 0.010 -0.000
2066 4 10.998 10.668 18.558 -0.007 -0.006 -0.002 -0.000
26705 4 9.601 11.292 1.732 -0.004 -0.003 0.004 0.000
168 4 -1.696 12.562 3.287 -0.004 0.005 0.008 -0.000
13194 4 4.675 10.165 10.379 0.004 -0.003 0.004 -0.000
892 4 0.762 11.427 3.206 0.011 -0.004 0.002 0.000
18822 4 11.890 1.392 -1.142 -0.001 -0.007 0.003 0.000
5852 4 1.862 12.992 5.815 0.005 0.008 -0.001 0.000
19096 4 -1.768 2.923 -1.414 -0.005 -0.002 0.014 0.000
7159 4 7.635 12.891 2.594 0.001 -0.000 -0.006 -0.000
19488 4 -2.590 1.992 1.017 -0.013 -0.006 -0.009 -0.000
22510 4 2.558 0.496 -5.078 -0.011 0.001 0.001 -0.000
9933 4 -3.200 14.020 4.914 -0.001 0.002 -0.007 -0.000
6583 4 2.338 3.473 8.355 0.009 0.002 0.011 0.000
7239 4 12.354 13.951 11.893 0.005 -0.002 0.002 -0.000
2526 4 0.090 14.770 17.558 -0.011 -0.005 0.004 0.000
13180 4 -0.258 6.125 7.985 0.004 0.002 0.002 -0.000
13143 4 0.979 -0.560 13.164 0.002 0.005 0.000 -0.000
31994 4 -2.673 -2.219 -2.795 -0.007 0.009 0.002 0.000
5516 4 0.260 8.382 4.700 0.006 0.001 -0.006 0.000
2339 4 5.256 11.043 0.024 0.008 -0.010 0.012 0.000
7666 4 0.998 1.247 19.549 0.014 -0.007 0.000 -0.000
6525 4 14.032 10.977 9.064 -0.014 0.010 0.017 0.000
1735 4 14.066 -0.098 2.354 0.013 -0.003 0.007 -0.000
6063 4 -1.342 4.527 1.351 -0.007 -0.003 -0.003 -0.000
1723 4 6.314 11.540 17.898 0.001 -0.003 0.000 -0.000
4839 4 0.688 6.153 17.170 -0.005 -0.007 -0.004 -0.000
982 4 11.495 10.385 -2.870 -0.009 0.002 0.001 0.000
2928 4 11.077 12.176 12.699 0.005 -0.001 0.004 0.000
8324 4 3.233 -1.305 -3.329 0.011 0.001 -0.003 0.000
161 4 -3.879 0.828 9.090 -0.004 -0.012 -0.013 -0.000
1050 4 -0.764 12.359 -1.605 0.004 -0.006 0.012 -0.000
1829 4 3.210 9.201 -0.025 -0.007 0.005 0.005 -0.000
27574 4 3.148 -3.010 1.571 0.003 -0.012 0.009 -0.000
1135 4 -2.142 7.526 -2.065 -0.002 0.005 -0.005 -0.000
488 4 -4.298 10.865 0.902 -0.001 -0.004 0.002 -0.000
14351 4 -1.322 5.731 15.665 -0.002 0.007 -0.006 0.000
2964 4 -0.430 13.667 13.345 0.001 0.001 0.001 0.000
27333 4 5.618 -3.457 -2.052 0.003 0.014 0.001 -0.000
4232 4 3.893 11.426 -2.120 -0.008 -0.003 0.008 -0.000
12797 4 -0.695 -1.115 4.527 0.004 0.010 0.002 0.000
7384 4 -3.886 6.111 11.518 -0.004 -0.001 0.002 0.000
223 4 7.437 13.572 6.996 -0.003 -0.004 0.000 -0.000
2092 4 11.491 14.245 15.531 -0.003 -0.005 0.003 -0.000
27578 4 13.757 6.446 -0.775 -0.005 0.008 -0.005 0.000
22875 4 4.525 -2.269 3.353 -0.003 -0.003 -0.003 0.000
485 4 11.706 15.286 1.699 -0.010 0.013 -0.005 0.000
4955 4 -0.242 12.890 15.868 -0.002 0.000 -0.020 -0.000
13115 4 1.631 -0.793 15.456 0.002 -0.001 0.001 0.000
5839 4 -2.916 13.143 15.014 0.005 0.001 0.001 -0.000
14269 4 -3.858 4.187 16.027 0.001 0.006 -0.006 0.000
9535 4 -3.170 6.950 -4.464 -0.012 0.011 -0.011 0.000
9568 4 6.051 -2.833 10.064 -0.007 0.009 0.004 0.000
20152 4 2.347 1.857 16.894 0.001 0.012 0.016 0.000
2201 4 -4.114 1.750 15.967 0.002 0.010 0.004 -0.000
492 4 0.274 9.347 -4.643 -0.007 -0.003 -0.004 -0.000
1944 4 7.307 12.441 -2.792 -0.002 0.002 0.004 0.000
2449 4 -0.506 -1.310 17.083 0.011 0.002 -0.015 0.000
11552 4 10.494 9.475 8.719 -0.001 -0.002 -0.007 0.000
3202 4 -3.721 10.097 20.398 0.005 0.010 0.005 0.000
7272 4 5.535 12.427 12.366 0.000 0.002 -0.005 -0.000
20563 4 12.340 9.020 19.989 0.009 0.001 0.002 0.000
9583 4 11.229 5.390 -3.804 -0.002 -0.006 0.004 -0.000
528 4 11.722 10.689 7.042 -0.003 -0.005 -0.009 -0.000
5464 4 -1.244 14.228 11.354 -0.003 -0.009 0.004 -0.000
4557 4 6.374 14.376 1.686 0.007 -0.008 -0.003 0.000
14188 4 0.193 12.070 11.126 0.005 0.001 -0.001 0.000
5627 4 -2.660 -2.065 10.514 0.021 -0.014 0.003 -0.000
3006 4 5.464 14.257 17.683 0.002 0.001 -0.006 0.000
6539 4 5.061 13.701 14.985 0.014 -0.011 0.004 -0.000
19264 4 4.477 6.811 -1.497 0.008 -0.011 -0.007 0.000
146 4 -2.299 14.926 1.202 0.009 -0.001 0.010 -0.000
4318 4 -4.329 8.523 5.028 -0.000 0.003 0.002 -0.000
335 4 11.637 13.178 -0.086 -0.004 -0.009 0.002 -0.000
19814 4 6.836 1.260 -2.543 0.002 0.001 0.004 -0.000
5315 4 7.341 14.190 14.046 -0.008 -0.002 0.002 -0.000
6872 4 4.692 1.592 -3.595 0.008 0.002 -0.002 0.000
2174 4 13.775 8.682 0.732 0.004 0.000 0.011 -0.000
6586 4 1.194 -3.047 17.900 0.003 -0.019 -0.006 0.000
5080 4 4.088 13.527 1.150 0.003 0.005 -0.003 0.000
9962 4 -0.531 1.863 14.387 -0.003 -0.012 -0.006 -0.000
5335 4 -0.612 8.403 13.963 -0.004 -0.017 0.008 0.000
1652 4 14.503 12.782 -4.284 -0.004 -0.009 0.005 -0.000
14706 4 -1.321 -3.511 15.762 0.000 -0.001 -0.000 0.000
6996 4 5.494 2.616 16.253 -0.005 -0.002 0.004 0.000
1284 4 7.962 7.898 19.762 -0.003 -0.003 -0.003 -0.000
3082 4 11.889 12.708 2.256 -0.007 -0.010 -0.009 0.000
7542 4 -3.203 4.981 19.934 -0.004 0.010 0.005 0.000
6654 4 1.026 15.142 14.465 0.001 0.002 -0.003 -0.000
23957 4 -2.064 15.533 -1.545 0.000 0.002 -0.002 0.000
1736 4 5.159 12.060 2.970 0.004 -0.002 0.002 -0.000
944 4 4.490 6.823 -3.882 -0.002 -0.001 0.000 0.000
10190 4 0.827 -3.592 -4.694 0.000 -0.002 0.000 0.000
16209 4 -2.319 -1.945 18.905 0.005 -0.000 0.003 0.000
18523 4 -2.028 4.784 -3.603 0.001 -0.003 -0.000 -0.000
2652 4 12.264 13.373 -2.586 0.005 0.006 0.001 0.000
13916 4 -0.651 5.465 -1.258 0.009 0.000 0.001 0.000
5759 4 2.697 8.910 17.302 -0.004 -0.009 -0.003 0.000
15584 4 -1.957 0.928 18.179 -0.003 -0.009 -0.006 -0.000
2046 4 -1.656 4.541 18.011 0.006 0.006 0.005 -0.000
641 4 -1.928 8.101 4.089 0.008 -0.001 0.000 -0.000
24378 4 -1.861 2.472 19.919 0.007 0.005 0.002 0.000
17489 4 7.280 13.333 16.369 0.004 0.001 0.009 0.000
2948 4 9.831 8.562 18.401 -0.003 -0.004 0.002 0.000
6923 4 8.710 7.353 13.916 -0.001 -0.005 -0.003 0.000
6953 4 1.397 -0.454 1.115 0.002 0.002 0.006 0.000
5227 4 -2.038 0.111 12.743 0.005 0.002 -0.005 -0.000
3642 4 7.744 -0.429 19.057 0.007 -0.002 0.002 0.000
8725 4 9.357 -0.317 16.311 0.003 -0.007 0.009 -0.000
5392 4 -5.398 13.870 3.690 0.001 0.006 0.007 -0.000
8790 4 12.991 0.566 9.544 -0.001 0.003 -0.006 0.000
1760 4 13.415 11.308 0.498 -0.001 -0.004 0.008 0.000
10064 4 -3.146 9.495 -3.534 0.004 -0.003 0.004 -0.000
5070 4 4.584 13.316 19.645 0.003 0.011 0.008 -0.000
6463 4 -2.676 2.678 13.990 -0.006 0.008 0.001 -0.000
10342 4 11.022 -1.903 15.668 0.016 -0.008 -0.008 0.000
1060 4 9.922 12.653 -1.866 0.000 -0.015 -0.003 0.000
1011 4 7.092 12.385 20.441 -0.016 -0.004 0.001 -0.000
2631 4 9.226 9.659 15.567 -0.002 0.003 0.011 -0.000
785 4 -4.093 4.297 1.082 -0.008 0.003 0.003 0.000
6921 4 9.727 12.556 6.247 -0.007 -0.005 -0.008 0.000
2506 4 13.010 4.213 2.199 0.006 -0.004 -0.002 -0.000
18965 4 3.669 4.694 -4.310 0.000 -0.004 0.004 -0.000
3189 4 10.887 14.976 7.894 -0.007 0.014 -0.013 0.000
2401 4 -4.649 0.823 19.002 0.003 -0.002 0.001 -0.000
6959 4 -0.635 8.214 16.582 0.011 -0.001 -0.003 0.000
1411 4 10.420 14.016 3.969 0.005 -0.005 -0.001 -0.000
1402 4 -4.426 7.674 19.352 -0.011 -0.011 0.000 0.000
6313 4 8.557 10.364 19.515 0.008 -0.001 0.005 -0.000
2579 4 6.288 8.507 -0.420 0.002 0.010 0.012 -0.000
2001 4 4.949 3.197 20.827 -0.005 -0.006 0.000 -0.000
2561 4 7.638 -2.616 18.457 -0.010 -0.010 -0.002 -0.000
11919 4 4.579 1.268 18.793 -0.006 0.011 0.005 -0.000
1701 4 9.983 14.521 -3.713 0.009 -0.002 0.004 -0.000
13111 4 9.513 -0.081 8.967 0.009 0.004 0.006 -0.000
1667 4 12.298 12.625 17.933 -0.005 0.007 -0.001 -0.000
14400 4 9.169 -3.552 20.435 0.010 -0.002 -0.009 0.000
3143 4 -1.483 7.100 18.852 0.002 0.006 -0.011 0.000
20478 4 3.424 1.616 6.706 -0.008 0.001 0.003 -0.000
4091 4 2.054 4.879 14.293 -0.002 0.004 -0.007 -0.000
8695 4 11.997 -0.796 3.879 0.010 -0.001 -0.001 0.000
525 4 12.636 3.191 9.934 0.006 -0.002 0.009 0.000
292 4 0.590 14.016 -2.992 0.006 -0.008 0.008 0.000
19210 4 -4.452 6.677 2.812 0.010 0.000 -0.004 -0.000
2535 4 13.365 -2.260 16.322 0.004 -0.002 0.006 -0.000
3447 4 4.680 9.841 18.658 -0.007 0.008 0.007 0.000
4556 4 2.206 -0.455 18.046 0.001 -0.002 -0.002 0.000
875 4 13.388 7.668 7.833 -0.001 0.003 -0.007 -0.000
9097 4 -3.301 1.838 11.703 0.001 -0.014 -0.010 -0.000
6158 4 -2.068 0.140 15.690 -0.001 -0.002 -0.004 0.000
25977 4 -3.284 -3.523 3.658 0.004 -0.008 -0.000 -0.000
3203 4 12.442 6.795 14.755 0.005 -0.003 -0.000 -0.000
23831 4 11.867 13.799 5.781 -0.005 0.003 -0.004 -0.000
5221 4 4.591 -1.465 13.224 -0.009 -0.003 0.001 0.000
977 4 5.798 10.982 -4.012 -0.002 0.007 -0.007 -0.000
1231 4 13.378 9.797 17.587 -0.013 -0.002 0.009 -0.000
7305 4 -0.411 1.557 11.615 0.008 0.007 0.001 0.000
13585 4 0.726 8.643 18.746 0.001 -0.003 -0.005 -0.000
3722 4 -3.280 5.122 -1.369 0.006 -0.002 0.003 0.000
8784 4 0.368 13.552 1.838 0.000 -0.000 -0.002 -0.000
23506 4 -4.658 9.014 -0.871 -0.004 -0.011 -0.001 0.000
5235 4 -3.084 6.372 16.562 0.001 0.000 -0.014 0.000
5523 4 13.208 11.178 11.783 0.003 -0.005 -0.002 0.000
23632 4 5.338 -3.411 7.653 0.001 -0.004 0.014 0.000
16650 4 2.988 14.240 17.516 -0.009 0.003 0.003 -0.000
2613 4 -1.844 13.324 18.978 0.008 0.010 0.003 -0.000
19785 4 -4.283 1.995 4.322 -0.003 -0.003 -0.001 -0.000
18843 4 9.029 -3.235 16.512 0.000 -0.012 -0.000 -0.000
4956 4 -2.957 -0.004 6.805 -0.007 0.001 0.002 0.000
1367 4 -0.519 -0.526 19.819 -0.000 0.011 -0.000 -0.000
4610 4 -3.760 2.837 18.325 -0.001 -0.008 -0.011 0.000
123 4 1.282 13.933 -0.714 -0.006 -0.006 0.002 0.000
9565 4 10.059 13.863 18.393 0.000 -0.011 -0.004 0.000
2133 4 4.616 -1.204 5.595 0.001 -0.006 0.009 -0.000
983 4 2.407 -2.696 20.745 -0.013 -0.008 0.001 0.000
1408 4 5.746 13.933 -1.087 -0.005 0.004 0.001 -0.000
1382 4 2.128 15.234 1.460 -0.002 0.003 0.011 -0.000
8635 4 5.890 -0.572 -4.044 -0.003 0.006 0.007 -0.000
5676 4 -3.900 10.080 3.533 0.002 0.001 0.003 0.000
12393 4 12.709 4.936 11.615 -0.001 0.003 0.000 -0.000
2458 4 11.604 -3.394 17.712 0.000 -0.005 -0.002 0.000
889 4 3.282 13.855 -2.340 0.005 -0.000 -0.002 -0.000
27926 4 -0.195 -0.954 11.175 0.006 -0.001 -0.014 -0.000
2514 4 13.381 -1.886 10.682 -0.006 0.001 0.009 -0.000
14359 4 10.175 -0.290 11.314 -0.007 0.000 0.001 0.000
1704 4 0.574 -2.477 2.351 0.000 0.008 -0.001 0.000
2029 4 14.712 -1.885 20.741 -0.001 -0.004 0.004 0.000
5757 4 -3.689 4.411 3.797 0.005 0.001 0.003 -0.000
22440 4 -1.291 -2.295 -0.447 0.001 -0.001 0.009 0.000
8644 4 11.561 1.728 16.167 0.009 0.006 -0.008 -0.000
2563 4 0.964 3.570 18.195 0.001 -0.005 -0.009 0.000
7312 4 -0.032 5.389 20.543 -0.006 -0.002 -0.001 0.000
9525 4 -2.392 -2.434 6.319 0.001 -0.002 -0.004 0.000
4829 4 -2.998 13.154 -3.080 0.000 -0.004 -0.006 0.000
9541 4 11.251 -1.785 -5.772 0.008 0.011 -0.005 -0.000
613 4 -1.638 11.604 -4.276 -0.008 0.002 0.002 -0.000
7513 4 -4.404 14.398 -1.705 -0.001 -0.002 -0.000 -0.000
7072 4 7.086 -2.013 21.372 0.003 -0.002 -0.010 -0.000
19771 4 13.700 -2.499 -4.653 -0.003 0.007 -0.001 0.000
11454 4 -3.858 9.401 9.462 -0.001 -0.003 0.007 0.000
427 4 14.198 6.440 9.945 0.000 -0.003 -0.001 0.000
1646 4 12.530 -2.550 5.854 -0.003 0.002 0.002 0.000
10727 4 -4.140 -1.302 17.363 -0.005 0.006 0.007 -0.000
2082 4 -4.196 -1.753 8.722 0.007 0.004 -0.003 0.000
1504 4 14.240 14.897 16.109 -0.004 -0.002 0.001 0.000
2536 4 13.675 5.926 4.540 0.003 -0.002 -0.001 -0.000
7277 4 0.283 -2.396 6.425 -0.011 0.009 -0.001 0.000
2977 4 11.810 2.804 20.900 -0.006 0.001 0.013 -0.000
11532 4 14.706 5.821 17.399 -0.000 0.007 -0.003 -0.000
4599 4 9.386 13.685 0.903 0.002 0.012 0.003 0.000
10245 4 10.075 0.033 20.360 -0.000 -0.009 -0.008 0.000
1973 4 2.846 12.408 8.118 -0.007 -0.007 0.002 0.000
7376 4 -4.251 12.434 19.020 -0.008 0.008 -0.013 0.000
410 4 8.502 -0.550 -2.547 0.011 -0.001 -0.003 0.000
1781 4 14.012 5.908 -3.247 0.007 0.004 -0.002 -0.000
3256 4 -2.117 11.552 17.227 -0.004 -0.007 0.001 -0.000
11089 4 14.661 -0.608 7.303 -0.000 0.011 -0.004 0.000
2251 4 -2.636 10.727 14.232 0.010 -0.004 -0.018 -0.000
19009 4 10.275 15.339 -0.858 -0.008 0.002 -0.011 -0.000
4436 4 1.764 -2.941 4.649 0.002 -0.003 0.001 -0.000
25166 4 2.996 10.079 -4.361 -0.003 -0.006 -0.000 0.000
6824 4 2.669 13.207 10.256 0.003 -0.005 0.000 -0.000
580 4 9.558 13.176 8.776 -0.016 0.015 0.001 -0.000
7878 4 -2.855 12.634 12.304 0.008 0.006 -0.004 -0.000
10044 4 -0.994 15.148 15.359 0.000 -0.000 0.002 -0.000
10789 4 12.851 4.949 7.968 0.003 -0.005 0.001 -0.000
401 4 -3.959 -3.975 1.242 0.005 -0.006 0.006 0.000
974 4 13.286 14.348 -0.511 -0.004 -0.004 -0.011 0.000
12720 4 5.558 -2.595 0.422 -0.008 -0.001 0.001 -0.000
3664 4 -3.876 -3.352 20.271 0.000 -0.013 -0.005 -0.000
13479 4 -2.545 -3.538 -4.885 -0.006 -0.006 0.002 -0.000
7028 4 -4.855 11.851 8.967 -0.002 0.004 -0.008 -0.000
6353 4 7.506 12.543 -0.028 -0.000 0.004 -0.000 -0.000
4432 4 -2.481 0.142 3.316 0.001 -0.008 0.009 0.000
3425 4 13.459 14.985 3.964 0.007 0.001 -0.001 0.000
5723 4 10.834 -3.408 7.198 0.000 -0.003 -0.002 -0.000
612 4 7.531 14.807 -3.158 0.000 0.000 -0.001 -0.000
6505 4 7.712 14.502 11.563 0.000 0.005 -0.009 -0.000
1363 4 7.986 -2.980 12.103 0.003 -0.005 0.000 0.000
1409 4 14.227 2.417 12.334 0.010 -0.003 0.002 0.000
1765 4 13.292 10.585 14.890 0.005 0.003 0.006 -0.000
9735 4 12.369 -3.097 20.164 0.004 0.003 0.009 0.000
9577 4 12.683 1.730 18.903 -0.004 0.003 -0.012 0.000
19224 4 12.979 14.552 -5.288 -0.006 0.001 -0.017 -0.000
16004 4 3.438 -2.784 10.773 -0.003 0.005 -0.010 -0.000
3739 4 10.520 5.843 19.524 0.015 -0.007 0.002 -0.000
8965 4 7.418 -2.713 -3.816 0.006 0.007 -0.001 0.000
7021 4 1.233 10.536 20.688 0.002 0.003 0.000 -0.000
8004 4 12.900 0.745 -3.585 -0.005 -0.001 -0.002 0.000
1881 4 -0.836 -3.210 20.045 -0.004 -0.001 0.001 0.000
7519 4 0.714 7.994 21.560 0.006 0.007 0.003 0.000
42 4 -1.185 10.143 19.630 -0.008 -0.002 0.000 -0.000
9564 4 -4.688 7.017 -2.612 0.007 -0.002 0.008 0.000
18969 4 5.016 13.310 -4.088 -0.004 0.004 0.005 0.000
1743 4 14.198 3.090 -4.144 -0.002 -0.001 -0.004 -0.000
4068 4 -5.001 13.180 1.200 -0.004 -0.008 0.007 0.000
2498 4 9.990 7.984 21.438 -0.002 -0.004 -0.002 -0.000
2265 4 14.088 8.314 3.321 0.002 0.010 -0.003 -0.000
1871 4 9.145 15.204 16.223 -0.005 0.006 -0.002 0.000
2650 4 -4.254 13.555 10.577 -0.005 0.002 0.007 0.000
1004 4 10.158 -2.129 1.883 0.009 0.010 0.000 -0.000
9058 4 -5.021 2.891 -1.176 -0.001 0.014 -0.004 -0.000
496 4 -1.203 15.423 3.428 0.006 0.007 0.006 0.000
10354 4 14.527 8.593 15.689 0.010 0.009 -0.004 0.000
27860 4 -1.685 -3.017 12.822 -0.003 -0.006 -0.004 -0.000
138 4 12.020 -2.120 -1.769 -0.001 -0.001 0.000 -0.000
493 4 3.301 -3.527 -3.803 -0.009 -0.009 0.004 -0.000
1012 4 6.935 -2.811 3.625 -0.005 -0.011 0.012 0.000
22876 4 0.089 -2.684 -2.415 0.002 0.005 0.000 0.000
504 4 10.253 -2.350 4.735 -0.002 -0.001 0.001 0.000
22957 4 -4.335 3.295 -3.900 0.007 0.009 0.002 0.000
1678 4 14.414 10.672 2.606 0.004 -0.002 0.005 -0.000
494 4 8.896 -2.495 7.850 -0.003 -0.007 0.005 0.000
5920 4 -4.550 10.300 11.850 0.003 -0.005 0.001 0.000
489 4 2.507 7.691 -4.912 -0.001 0.001 -0.001 -0.000
3616 4 -5.106 8.121 16.916 0.000 -0.006 -0.008 -0.000
19205 4 -5.386 9.865 7.540 -0.006 -0.006 0.000 0.000
8656 4 12.651 -2.950 3.132 -0.008 0.000 0.005 0.000
2087 4 8.801 -0.803 -5.052 0.006 0.006 0.002 -0.000
11168 4 -5.245 5.299 5.449 -0.003 0.008 -0.004 0.000
23778 4 -5.100 6.340 -0.260 -0.003 -0.004 0.007 -0.000
12786 4 -4.922 0.152 2.640 0.001 0.006 -0.001 -0.000
5114 4 4.599 14.865 3.465 0.012 0.014 -0.016 -0.000
5359 4 12.302 13.826 20.388 -0.002 0.005 -0.005 -0.000
8724 4 -4.187 4.783 -5.660 -0.001 -0.000 0.001 0.000