ITEM: TIMESTEP
46000
ITEM: NUMBER OF ATOMS
32000
ITEM: BOX BOUNDS pp pp pp
-5.737611 76.217611
-3.527273 74.007273
-6.225737 76.705737
ITEM: ATOMS id type x y z vx vy vz q
531 4 0.995 10.433 3.922 -0.005 -0.006 0.008 0.000
2528 4 4.111 2.681 15.975 -0.005 -0.003 0.005 -0.000
1282 4 10.551 10.028 7.162 0.003 0.008 -0.001 -0.000
19490 4 1.391 4.976 12.022 0.001 -0.004 -0.007 -0.000
19217 4 3.750 3.707 8.020 -0.002 0.002 0.004 0.000
23469 4 0.561 5.274 0.993 0.002 0.003 0.013 0.000
490 4 -3.199 5.719 7.606 -0.001 -0.006 0.001 0.000
19282 4 7.406 12.476 -1.606 0.009 -0.014 -0.004 0.000
2126 4 -2.462 12.014 12.624 -0.010 0.004 -0.005 0.000
404 4 0.192 2.391 8.908 -0.001 0.001 0.005 0.000
3307 4 -1.746 1.839 11.006 -0.003 -0.002 -0.005 0.000
18442 4 6.926 3.278 -3.047 0.003 -0.002 0.003 0.000
2007 4 7.685 6.094 18.588 0.005 -0.002 -0.004 -0.000
648 4 9.424 10.630 12.870 0.004 -0.006 -0.004 0.000
10684 4 2.921 1.921 6.238 0.002 -0.005 0.004 0.000
202 4 9.305 1.409 2.085 -0.003 0.003 0.005 0.000
844 4 9.104 7.208 3.217 -0.003 0.009 -0.011 -0.000
4074 4 9.449 9.630 9.686 0.003 0.005 0.003 -0.000
3365 4 3.308 4.278 13.439 0.006 0.005 -0.007 -0.000
13152 4 -2.431 8.022 7.126 -0.005 -0.011 0.006 -0.000
13597 4 12.435 9.009 6.154 -0.009 0.001 -0.002 0.000
7718 4 13.795 3.540 8.098 -0.008 0.002 -0.012 0.000
8731 4 13.000 3.656 10.521 -0.002 0.009 0.003 0.000
18934 4 7.025 5.095 -1.061 -0.004 0.005 0.015 -0.000
6029 4 11.104 7.893 8.910 0.010 0.008 0.005 0.000
12360 4 0.131 3.868 -3.978 0.009 -0.010 0.007 -0.000
18852 4 10.269 3.782 1.188 0.003 0.003 -0.003 0.000
894 4 3.544 4.920 10.759 0.005 -0.004 0.007 0.000
2981 4 -2.871 10.803 14.292 0.012 0.003 0.008 -0.000
614 4 4.857 5.364 4.763 -0.007 -0.004 -0.007 0.000
10296 4 7.311 9.181 12.237 0.002 -0.003 -0.003 0.000
4480 4 3.705 6.906 12.092 0.004 -0.004 0.010 -0.000
19782 4 5.065 5.615 0.841 0.002 0.002 0.004 0.000
23396 4 6.205 7.478 16.943 0.003 -0.002 0.001 0.000
201 4 7.294 1.891 -0.692 0.007 -0.005 -0.003 -0.000
1777 4 13.299 8.007 10.878 -0.011 0.005 -0.003 -0.000
217 4 7.236 6.257 8.537 -0.006 -0.004 0.010 0.000
27169 4 0.622 5.013 -1.442 0.003 -0.001 0.012 0.000
173 4 6.011 5.071 7.023 -0.005 0.007 0.007 0.000
539 4 9.890 10.959 5.005 -0.008 0.002 -0.002 0.000
855 4 13.420 6.800 6.866 0.004 -0.009 0.002 0.000
3830 4 11.176 6.554 6.865 0.003 0.004 0.008 -0.000
2647 4 6.596 4.409 3.171 0.005 0.004 -0.003 -0.000
1364 4 9.115 7.383 10.853 -0.007 -0.001 -0.004 0.000
8326 4 6.269 6.796 11.123 0.004 0.002 -0.002 0.000
27579 4 2.386 5.893 5.034 0.001 -0.009 -0.007 0.000
16513 4 7.928 10.670 8.123 -0.003 -0.001 0.002 0.000
19376 4 3.121 4.313 -0.481 0.006 -0.002 0.002 0.000
2422 4 10.796 6.723 15.262 0.008 0.004 0.003 0.000
13116 4 7.364 9.643 18.175 -0.011 0.005 -0.005 -0.000
9886 4 3.689 8.645 14.172 0.006 -0.001 -0.002 0.000
4313 4 -0.765 2.718 1.093 0.004 -0.010 -0.012 0.000
7019 4 7.492 11.642 14.454 0.003 -0.005 0.005 0.000
1443 4 2.349 10.178 9.345 -0.004 -0.002 -0.002 0.000
16555 4 12.417 5.801 8.958 -0.004 -0.008 0.004 -0.000
5068 4 10.635 14.533 20.141 -0.004 -0.002 -0.002 -0.000
6154 4 1.140 5.930 7.508 0.004 0.005 -0.006 0.000
6673 4 7.275 8.555 9.362 -0.001 0.005 -0.005 -0.000
178 4 5.768 3.645 9.183 0.008 -0.015 -0.002 0.000
1216 4 6.028 1.173 2.066 0.002 0.012 -0.004 -0.000
5267 4 -0.626 3.757 17.375 -0.003 -0.011 0.000 -0.000
27566 4 -0.801 9.867 6.133 0.004 -0.001 0.004 0.000
18496 4 0.963 6.264 3.431 -0.001 0.010 -0.005 0.000
447 4 2.563 2.105 -4.140 -0.003 -0.006 0.004 -0.000
15594 4 -3.625 2.543 14.309 0.001 0.001 0.008 0.000
19223 4 4.570 6.667 9.073 0.006 -0.002 -0.005 -0.000
3246 4 5.220 11.031 6.589 0.012 0.003 -0.007 0.000
8682 4 7.732 12.386 6.222 0.009 0.006 -0.008 0.000
7471 4 5.680 4.516 17.584 0.004 0.000 -0.008 0.000
16043 4 7.223 0.285 11.684 -0.015 -0.006 -0.007 -0.000
19309 4 2.817 -0.099 -2.312 -0.002 0.014 0.006 -0.000
1643 4 3.650 0.890 8.351 0.002 0.004 0.001 0.000
2221 4 -0.432 -1.557 13.959 0.002 0.002 0.003 0.000
19645 4 10.928 3.800 6.013 -0.009 0.000 -0.011 -0.000
487 4 4.202 9.477 -0.575 0.007 0.002 0.004 0.000
19699 4 12.323 5.895 0.041 -0.006 0.014 -0.006 0.000
18845 4 1.661 7.698 15.940 -0.010 -0.011 0.002 0.000
19244 4 5.629 -1.338 2.390 -0.007 0.005 -0.009 0.000
18861 4 10.789 1.409 -0.348 0.002 -0.001 0.008 0.000
23478 4 12.456 8.833 16.903 0.005 0.008 0.004 -0.000
19656 4 8.681 6.706 -0.866 -0.008 0.007 -0.001 -0.000
1276 4 5.446 6.947 -1.514 0.012 -0.007 0.004 0.000
1251 4 3.973 6.242 15.144 -0.004 0.004 -0.001 0.000
2857 4 2.047 7.748 10.018 0.001 -0.009 -0.007 -0.000
2516 4 4.852 12.324 11.626 -0.002 0.005 0.007 0.000
11147 4 7.746 0.082 14.060 -0.003 -0.002 0.004 -0.000
5387 4 0.796 1.797 17.804 0.002 -0.006 -0.005 0.000
19806 4 10.781 5.444 -2.301 0.004 0.008 0.004 0.000
2118 4 9.801 0.896 15.273 -0.003 0.003 0.003 0.000
2729 4 6.561 9.473 14.888 0.002 0.001 -0.006 -0.000
3085 4 9.011 4.832 2.974 0.001 0.006 0.010 0.000
7474 4 -0.001 8.286 4.728 0.001 -0.010 0.010 -0.000
1293 4 -0.213 10.449 0.129 -0.007 0.003 -0.001 -0.000
150 4 1.616 1.765 3.499 -0.016 0.008 -0.001 0.000
10322 4 2.647 0.088 11.272 -0.011 -0.008 -0.002 0.000
13513 4 0.032 0.727 15.366 0.003 -0.006 0.004 0.000
10282 4 10.697 3.468 3.520 0.015 -0.000 -0.003 -0.000
9970 4 0.105 4.152 20.134 -0.002 -0.002 0.008 0.000
2668 4 7.609 11.726 3.526 -0.001 -0.011 -0.002 0.000
7787 4 -0.602 5.227 5.654 -0.002 -0.008 0.018 0.000
6833 4 5.230 2.839 20.195 -0.003 0.000 -0.020 -0.000
4073 4 -0.810 7.148 -0.463 0.010 -0.005 0.009 0.000
899 4 8.112 4.866 10.856 0.004 -0.003 -0.009 0.000
18858 4 11.821 8.842 3.246 0.008 -0.007 -0.002 0.000
4640 4 -0.386 8.072 1.477 -0.002 -0.003 -0.000 -0.000
27962 4 7.788 6.321 1.400 0.002 -0.012 0.001 0.000
815 4 5.092 2.007 17.940 -0.002 -0.003 -0.009 0.000
2531 4 2.846 7.271 -1.320 -0.001 -0.002 -0.008 0.000
13958 4 -3.102 1.904 -1.146 -0.018 -0.001 0.009 0.000
846 4 11.231 6.230 3.963 -0.002 0.007 -0.002 0.000
281 4 7.779 -0.397 3.062 -0.008 -0.004 0.001 0.000
3468 4 6.006 7.589 13.760 -0.003 0.007 0.004 -0.000
12752 4 5.315 2.726 4.945 0.002 0.008 -0.005 0.000
20276 4 8.662 -1.991 12.066 0.001 -0.002 -0.004 -0.000
5709 4 4.720 6.822 3.057 0.011 0.000 0.003 -0.000
27522 4 8.991 7.841 7.531 -0.005 -0.004 0.005 -0.000
251 4 12.482 5.251 -4.537 -0.004 0.002 -0.010 -0.000
2524 4 -2.869 2.931 8.488 -0.006 -0.006 0.002 0.000
4440 4 -0.359 4.277 7.884 -0.000 0.009 0.001 -0.000
2179 4 8.295 13.456 8.501 -0.001 0.008 0.002 -0.000
5760 4 7.097 7.190 4.649 0.007 -0.003 -0.016 0.000
1614 4 9.340 5.314 13.776 -0.001 0.002 0.000 0.000
1291 4 4.044 2.448 10.713 0.000 -0.006 -0.007 0.000
10758 4 8.711 8.335 16.487 -0.002 -0.002 0.003 -0.000
19801 4 -0.925 5.727 13.475 0.002 0.004 -0.002 -0.000
11568 4 2.150 8.106 19.314 0.007 -0.001 -0.009 0.000
14714 4 0.012 3.632 13.527 -0.002 -0.006 0.003 -0.000
6274 4 -0.552 10.651 -2.302 -0.004 0.001 0.005 -0.000
9685 4 1.654 8.932 0.621 0.022 -0.004 0.001 0.000
7065 4 0.697 12.070 2.412 -0.009 0.012 -0.006 -0.000
421 4 5.300 3.075 14.029 -0.002 0.008 -0.003 0.000
9137 4 10.787 3.341 13.088 -0.003 0.007 0.005 -0.000
503 4 8.861 -2.338 2.134 -0.002 0.006 0.002 -0.000
810 4 10.379 4.127 15.605 -0.008 -0.019 0.003 -0.000
27123 4 -3.395 -2.942 3.464 -0.015 -0.004 -0.004 0.000
41 4 11.467 10.437 9.981 -0.008 0.005 0.004 -0.000
3271 4 7.855 3.116 4.616 0.022 -0.005 0.004 0.000
1240 4 11.855 9.006 1.034 -0.014 0.001 0.012 -0.000
6877 4 0.383 12.086 11.234 -0.006 0.003 0.003 0.000
847 4 9.658 8.354 5.444 0.004 -0.008 0.001 0.000
406 4 14.811 8.576 -3.019 0.004 0.006 -0.010 -0.000
27130 4 8.126 3.690 8.181 -0.001 -0.007 0.009 -0.000
19737 4 2.832 12.371 5.091 0.000 -0.007 0.012 -0.000
5000 4 0.724 14.235 7.367 -0.008 -0.005 -0.003 0.000
5838 4 10.653 9.859 15.360 0.002 -0.009 0.012 -0.000
11139 4 11.971 0.510 14.082 -0.003 0.010 0.003 -0.000
17820 4 2.530 11.308 -0.845 0.004 -0.003 -0.005 0.000
13075 4 7.207 0.658 5.599 -0.009 -0.005 -0.000 -0.000
14716 4 10.470 -1.070 3.439 0.009 -0.004 -0.001 -0.000
214 4 3.671 0.069 1.233 -0.004 -0.009 -0.002 0.000
8698 4 9.899 -0.926 17.424 0.010 0.006 0.003 -0.000
4353 4 8.282 11.239 0.484 -0.002 -0.003 -0.009 -0.000
2909 4 10.000 -1.575 14.566 -0.000 -0.002 -0.001 0.000
9921 4 3.087 5.259 2.764 0.003 -0.006 -0.009 0.000
2462 4 2.067 4.297 17.135 0.000 -0.005 0.006 0.000
10657 4 7.248 11.113 10.991 0.015 0.005 0.000 0.000
3286 4 6.616 5.054 20.576 -0.012 0.001 -0.002 0.000
3134 4 -1.989 -1.657 16.426 0.009 0.003 -0.002 0.000
22878 4 0.247 3.897 3.557 -0.004 0.007 -0.002 -0.000
3217 4 9.984 1.136 4.658 -0.006 -0.001 -0.000 -0.000
19887 4 4.366 8.455 5.435 0.000 0.011 0.004 -0.000
4078 4 4.929 10.898 9.651 -0.002 0.005 0.005 0.000
13997 4 -1.353 2.643 6.316 0.004 -0.013 0.006 -0.000
4910 4 -4.787 5.860 0.569 -0.001 -0.009 0.009 -0.000
13594 4 12.048 1.147 11.389 -0.011 -0.007 -0.005 -0.000
3010 4 5.121 2.573 0.385 0.000 0.000 -0.007 -0.000
5020 4 2.138 -1.279 6.763 0.006 0.005 -0.012 0.000
1651 4 0.215 -2.275 4.807 0.006 -0.005 -0.001 -0.000
5357 4 -2.833 3.370 -3.491 -0.005 0.003 0.004 0.000
2412 4 -2.186 10.455 18.249 0.012 0.010 0.001 -0.000
55 4 11.038 12.260 11.870 0.002 -0.013 0.008 -0.000
9924 4 -2.533 9.746 1.777 -0.006 0.003 -0.002 0.000
2108 4 9.219 7.617 20.719 0.005 0.004 -0.001 0.000
164 4 0.236 8.485 8.135 0.006 0.003 -0.011 -0.000
1249 4 9.348 3.880 -1.083 0.014 -0.013 0.000 0.000
1046 4 14.607 10.042 10.254 -0.005 -0.005 0.003 0.000
1331 4 6.535 0.811 19.753 -0.005 0.001 0.009 -0.000
163 4 2.878 3.573 4.607 -0.005 -0.003 -0.007 0.000
2208 4 -0.034 6.286 16.188 0.006 0.002 -0.015 0.000
27247 4 -0.805 1.502 -3.665 -0.006 -0.010 -0.004 0.000
2066 4 12.473 4.938 16.478 -0.001 -0.005 0.003 -0.000
26705 4 10.415 6.711 0.952 -0.006 0.001 -0.007 0.000
13194 4 5.840 13.185 9.550 -0.001 0.003 0.003 0.000
19488 4 -2.206 5.395 -0.044 -0.002 0.001 -0.011 -0.000
9933 4 -3.872 13.445 2.202 0.002 0.010 0.004 -0.000
6583 4 -2.087 0.345 14.049 0.009 -0.000 -0.004 -0.000
13180 4 5.769 4.065 11.714 -0.004 -0.001 -0.005 0.000
13143 4 6.487 4.859 14.108 -0.001 0.003 0.006 0.000
5516 4 2.008 9.405 6.122 0.004 -0.000 -0.000 -0.000
2339 4 4.009 10.483 -5.668 -0.010 0.001 0.006 -0.000
6063 4 -2.290 10.590 -0.751 0.005 0.012 -0.004 -0.000
982 4 11.295 7.348 -3.996 -0.007 -0.004 -0.009 -0.000
27574 4 -3.378 0.827 -3.086 -0.008 0.002 0.012 0.000
14351 4 -2.005 1.330 16.232 0.001 0.007 0.002 0.000
12797 4 -3.062 -1.203 -1.762 -0.005 0.001 -0.006 -0.000
7384 4 -2.010 -1.118 11.808 0.003 -0.002 0.004 0.000
22875 4 -1.171 3.138 -1.734 0.015 -0.000 -0.002 -0.000
4955 4 0.089 12.215 13.938 -0.004 -0.007 0.002 -0.000
13115 4 9.247 2.758 17.008 -0.001 -0.004 0.005 0.000
5839 4 2.091 11.476 12.631 -0.003 -0.004 -0.004 -0.000
9535 4 1.286 13.282 -1.986 -0.002 -0.000 -0.000 0.000
20152 4 5.697 0.645 15.148 0.001 0.002 -0.007 0.000
2201 4 -1.072 -0.207 17.881 0.001 0.001 0.003 -0.000
492 4 1.012 8.535 -1.782 0.001 -0.000 -0.007 0.000
11552 4 8.746 7.482 13.699 -0.001 -0.015 0.001 -0.000
9583 4 7.764 3.564 1.171 0.000 -0.007 0.009 0.000
528 4 10.867 8.707 11.958 0.002 0.018 0.004 -0.000
14188 4 6.296 8.151 6.983 -0.005 -0.013 0.010 0.000
6539 4 3.277 6.410 17.469 -0.007 0.007 -0.007 -0.000
19264 4 6.728 8.961 -0.228 -0.001 0.003 -0.005 -0.000
5315 4 6.259 12.921 16.217 0.005 0.004 0.005 0.000
9962 4 4.453 -3.073 16.180 0.008 -0.012 -0.014 -0.000
5335 4 -2.904 5.961 12.012 -0.004 0.010 0.007 0.000
6996 4 11.035 6.738 17.837 -0.012 -0.002 -0.000 0.000
3082 4 8.951 7.755 -3.326 0.006 0.012 -0.006 -0.000
7542 4 -2.149 2.830 18.862 -0.005 0.007 -0.007 0.000
1736 4 2.597 8.070 3.523 0.005 -0.004 -0.004 -0.000
944 4 4.630 5.863 -3.721 -0.006 -0.004 0.001 -0.000
16209 4 2.812 0.161 15.982 0.003 -0.005 0.005 0.000
18523 4 -3.373 6.924 -1.185 0.003 -0.003 0.001 -0.000
13916 4 -1.546 10.810 3.403 0.006 -0.005 0.003 -0.000
2046 4 1.472 5.376 14.735 -0.005 -0.001 0.008 0.000
24378 4 0.639 9.827 15.243 -0.003 0.000 0.006 0.000
17489 4 8.679 11.333 16.496 -0.003 0.007 0.007 0.000
6923 4 9.486 5.265 20.385 0.003 -0.000 -0.003 0.000
5227 4 -1.671 5.861 9.409 0.007 0.006 -0.001 -0.000
1760 4 9.822 12.564 2.832 0.006 -0.000 -0.005 0.000
2631 4 10.401 11.250 19.635 0.005 0.003 0.005 -0.000
785 4 -2.672 7.217 1.105 -0.002 0.003 0.002 0.000
6921 4 5.551 11.002 1.210 0.011 -0.006 -0.004 -0.000
18965 4 4.065 2.844 2.609 0.002 -0.002 -0.002 -0.000
6959 4 -1.834 13.703 15.536 0.002 -0.009 0.002 -0.000
2579 4 3.346 14.900 -1.528 -0.005 -0.007 -0.005 0.000
13111 4 7.799 2.866 12.577 0.006 0.006 -0.004 -0.000
3143 4 -2.307 3.965 15.622 0.008 -0.003 -0.013 0.000
20478 4 1.812 2.682 10.707 -0.000 -0.008 0.009 -0.000
4091 4 1.034 5.210 9.719 -0.004 0.001 -0.009 -0.000
525 4 14.480 5.898 11.971 0.007 0.008 -0.010 -0.000
4556 4 13.511 0.463 18.667 -0.005 0.009 -0.001 0.000
9097 4 3.999 8.943 7.912 -0.010 -0.009 0.007 0.000
3203 4 12.352 6.027 13.424 0.009 -0.002 -0.013 -0.000
5221 4 7.704 2.879 14.998 0.003 0.003 -0.013 0.000
7305 4 -3.656 -2.488 14.164 -0.007 0.001 0.007 0.000
3722 4 0.642 7.092 -3.543 0.005 -0.002 0.006 -0.000
23506 4 -1.387 13.062 -1.861 -0.011 -0.004 -0.006 -0.000
5235 4 -2.346 6.387 15.998 0.002 -0.005 -0.007 0.000
1367 4 3.331 1.628 13.465 -0.004 0.004 0.003 0.000
9565 4 7.925 12.308 18.413 -0.004 -0.010 0.007 -0.000
2133 4 -0.649 1.156 4.642 0.007 -0.005 -0.002 -0.000
1408 4 7.642 14.692 -1.090 -0.004 0.007 0.000 -0.000
8635 4 6.163 1.896 -5.989 -0.001 -0.000 -0.008 -0.000
5676 4 2.872 11.431 7.388 0.004 -0.002 0.007 -0.000
2458 4 12.011 0.585 17.046 0.007 -0.001 -0.012 0.000
14359 4 3.473 6.538 6.933 0.004 0.003 -0.014 -0.000
5757 4 2.128 3.076 1.527 0.009 0.002 -0.013 -0.000
8644 4 10.151 2.682 10.989 0.009 0.002 0.008 0.000
2563 4 8.223 5.711 16.004 0.007 -0.010 0.009 -0.000
9525 4 -2.234 0.655 9.124 0.005 -0.002 0.006 -0.000
4829 4 -3.258 14.114 -0.389 -0.007 0.008 -0.001 0.000
613 4 2.281 13.262 0.437 0.003 -0.003 0.005 0.000
10727 4 2.731 -2.233 14.616 0.002 -0.000 -0.008 -0.000
7277 4 -0.067 -0.055 9.676 0.002 0.009 0.000 0.000
2977 4 13.201 3.217 18.184 0.008 0.009 0.004 -0.000
1973 4 2.527 12.975 10.304 0.004 -0.008 0.003 0.000
3256 4 -4.434 13.300 16.952 0.005 0.009 -0.001 -0.000
2251 4 1.064 12.112 16.522 -0.001 -0.002 -0.001 -0.000
19009 4 10.808 11.229 0.417 0.006 0.006 0.018 0.000
4436 4 3.831 1.938 -1.189 -0.002 0.006 -0.004 0.000
6824 4 4.440 8.768 10.804 0.006 0.016 0.001 0.000
580 4 10.072 12.048 7.577 -0.008 0.003 -0.001 -0.000
7878 4 -0.276 9.551 12.617 -0.006 0.008 -0.003 -0.000
12720 4 1.371 1.697 -1.840 0.001 0.003 0.002 0.000
4432 4 -2.236 3.241 4.194 -0.002 -0.013 -0.006 0.000
5723 4 9.835 5.191 8.627 -0.008 -0.000 -0.003 0.000
16004 4 4.556 -1.161 12.468 0.004 0.003 -0.013 0.000
3739 4 8.957 1.309 19.751 -0.010 0.005 0.005 0.000
8004 4 9.694 3.490 -3.793 -0.000 -0.004 -0.000 0.000
18969 4 5.567 14.549 -2.181 -0.000 -0.007 -0.000 -0.000
1871 4 12.334 13.716 13.526 0.011 0.005 -0.016 0.000
494 4 9.175 0.655 7.844 0.012 -0.005 0.001 -0.000
489 4 3.959 12.587 -3.193 0.000 0.001 0.010 0.000
2087 4 9.331 5.578 -4.844 0.000 -0.004 0.013 0.000
12786 4 -3.089 0.239 6.074 -0.002 -0.008 -0.005 0.000
203 4 8.872 5.890 5.628 0.005 -0.006 -0.005 -0.000
19267 4 3.421 14.780 -3.829 -0.013 -0.002 0.001 0.000
3774 4 11.657 7.346 20.094 -0.008 0.002 0.003 0.000
1295 4 5.157 1.168 -3.130 0.002 -0.002 0.011 -0.000
16764 4 -0.401 7.299 11.410 0.005 -0.003 -0.009 -0.000
6067 4 0.997 7.436 13.397 0.010 0.006 -0.007 -0.000
20542 4 -4.364 8.598 18.119 0.003 -0.001 -0.004 -0.000
16208 4 11.676 11.559 17.190 -0.003 -0.004 -0.000 -0.000
9053 4 -0.690 4.282 10.841 -0.012 -0.002 0.009 0.000
1062 4 -2.029 12.955 6.274 0.002 -0.006 0.009 0.000
2678 4 1.234 14.092 12.332 -0.003 -0.010 0.008 0.000
3296 4 -4.414 0.148 15.273 0.012 0.006 -0.007 -0.000
4511 4 2.595 4.751 -2.988 0.015 0.009 0.003 0.000
6147 4 0.821 14.122 15.242 -0.001 0.010 -0.007 0.000
7704 4 -0.021 -1.995 7.454 0.001 0.001 -0.007 -0.000
11168 4 0.860 3.635 5.848 -0.007 0.011 -0.012 0.000
11191 4 11.079 5.313 11.478 -0.005 -0.011 -0.004 0.000
5060 4 -1.598 15.372 18.192 -0.003 0.003 0.006 0.000
3364 4 -1.220 0.674 20.137 -0.001 0.003 -0.001 0.000
1220 4 7.306 1.385 17.063 0.009 -0.003 0.015 -0.000
10031 4 11.951 11.601 14.559 0.001 -0.010 0.001 0.000
18481 4 2.099 -1.787 2.528 -0.013 0.002 -0.004 -0.000
8692 4 -1.430 -2.458 -3.547 0.004 -0.000 -0.004 -0.000
19201 4 -3.956 12.119 -1.644 0.003 -0.003 0.007 0.000
445 4 6.693 -0.655 -5.276 0.000 -0.002 -0.005 -0.000
8656 4 7.313 -0.909 -2.647 -0.004 -0.004 -0.007 -0.000
1217 4 -4.456 -0.954 4.394 0.002 -0.007 0.002 -0.000
13556 4 -2.609 1.111 3.173 0.001 -0.013 -0.001 -0.000
504 4 5.708 -0.325 -0.630 0.007 -0.001 0.008 -0.000
6187 4 -3.679 3.736 20.613 0.002 0.007 0.005 -0.000
3616 4 -1.449 9.124 15.541 -0.003 -0.003 -0.003 0.000
1608 4 9.919 9.455 18.095 -0.008 0.004 0.004 -0.000
841 4 -1.548 14.076 9.375 -0.003 0.006 0.002 0.000
10332 4 12.665 -0.564 -0.451 0.008 0.005 0.001 0.000
2210 4 9.700 12.567 14.874 -0.000 0.007 -0.004 0.000
31595 4 -2.836 5.785 4.528 0.003 -0.002 -0.013 -0.000
4547 4 -0.202 9.873 10.102 0.007 -0.011 -0.002 0.000
10305 4 8.660 1.250 -4.185 0.002 -0.002 -0.003 -0.000
12393 4 11.496 2.496 8.358 0.007 0.009 -0.001 -0.000
1609 4 5.561 8.646 -3.785 0.001 -0.007 0.006 -0.000
1281 4 6.536 1.429 7.628 0.004 0.002 0.006 -0.000
2243 4 14.272 10.020 17.953 0.003 0.002 -0.001 0.000
486 4 14.002 6.868 -4.972 -0.000 0.000 0.000 0.000
9487 4 -0.901 0.248 -1.443 -0.003 -0.005 -0.009 -0.000
24288 4 -4.005 1.211 20.330 -0.014 -0.003 0.000 0.000
2001 4 7.540 3.542 18.667 0.007 0.003 0.001 0.000
2860 4 0.387 12.419 -4.311 -0.004 -0.000 -0.004 -0.000
9402 4 -0.191 0.635 1.936 -0.004 -0.004 0.003 -0.000
5360 4 9.618 0.578 12.859 0.007 0.007 0.018 0.000
19764 4 3.272 9.434 -2.946 -0.001 0.006 0.009 0.000
23632 4 4.645 0.017 6.199 -0.000 -0.003 -0.002 0.000
22436 4 13.274 6.543 -2.330 0.004 -0.007 -0.010 -0.000
88 4 0.424 -0.452 -3.645 0.014 -0.011 0.009 -0.000
1226 4 8.355 -0.286 0.556 -0.000 0.005 0.006 -0.000
5381 4 -2.324 0.999 0.589 0.003 0.002 -0.002 -0.000
2867 4 7.250 5.670 -3.633 -0.001 0.009 -0.008 -0.000
18924 4 4.558 12.728 -0.680 -0.007 -0.002 -0.010 -0.000
3283 4 5.657 -0.562 17.392 -0.000 -0.001 -0.008 -0.000
23659 4 -2.067 8.055 -2.871 0.005 0.001 -0.006 -0.000
2802 4 13.021 10.399 12.262 0.009 -0.007 -0.003 0.000
444 4 5.174 -0.012 10.084 0.009 0.007 -0.011 0.000
1790 4 10.714 -0.811 1.005 0.001 -0.001 -0.005 -0.000
1774 4 11.164 -2.561 5.477 -0.008 0.013 -0.010 -0.000
23831 4 8.848 8.945 0.745 -0.002 0.012 0.004 -0.000
6880 4 0.121 8.539 17.413 -0.001 0.004 -0.003 0.000
9981 4 11.713 1.683 -2.798 0.006 0.011 -0.009 0.000
5852 4 3.182 11.496 2.535 0.003 0.007 -0.007 -0.000
1124 4 -5.800 10.486 14.988 -0.005 -0.005 -0.001 -0.000
19307 4 0.770 0.796 6.846 0.002 0.004 0.001 0.000
6980 4 -4.249 2.357 16.592 0.003 -0.001 -0.007 0.000
2407 4 -3.913 2.987 11.709 -0.009 0.010 -0.013 -0.000
2830 4 10.084 -1.135 6.597 0.003 -0.007 0.005 -0.000
4198 4 -4.852 7.872 7.970 -0.004 0.007 -0.002 0.000
1767 4 13.100 3.180 1.423 -0.004 0.006 -0.007 0.000
25492 4 -3.713 0.148 18.004 -0.008 0.004 -0.006 -0.000
1632 4 8.062 1.900 9.801 0.002 0.008 0.000 0.000
11089 4 13.277 1.271 9.523 -0.000 0.001 0.003 -0.000
4552 4 11.627 11.859 4.110 0.003 0.001 0.007 -0.000
1881 4 6.703 -3.397 18.306 0.009 0.007 0.006 -0.000
1781 4 11.130 7.906 -1.395 0.006 -0.009 -0.008 -0.000
1701 4 10.160 12.609 -1.126 -0.003 -0.001 0.009 -0.000
2259 4 -3.639 10.107 7.170 -0.008 -0.002 -0.003 0.000
10374 4 14.830 10.390 3.085 0.010 -0.001 -0.002 0.000
820 4 9.807 -1.060 -4.522 -0.004 -0.006 0.008 -0.000
7219 4 -1.752 12.378 1.104 0.009 -0.002 0.003 0.000
977 4 6.163 12.055 -5.289 0.003 -0.006 -0.000 0.000
7239 4 8.593 13.800 13.264 0.003 0.001 -0.003 0.000
16606 4 2.113 10.254 17.976 0.002 0.001 0.003 -0.000
7781 4 -4.456 9.273 12.944 -0.007 -0.004 -0.000 0.000
13588 4 -2.081 9.698 8.988 -0.004 -0.002 0.004 -0.000
1912 4 7.945 10.284 20.603 -0.002 0.007 0.001 0.000
1284 4 4.785 -1.307 19.631 -0.000 -0.001 0.000 -0.000
897 4 -1.750 7.444 3.091 -0.010 -0.003 -0.001 0.000
3521 4 -0.702 -2.562 18.551 0.002 -0.001 0.000 -0.000
3048 4 0.821 14.644 10.145 0.002 0.002 -0.008 -0.000
875 4 7.815 9.946 5.705 -0.004 -0.000 -0.000 -0.000
2209 4 12.507 8.625 13.834 0.002 0.010 -0.005 -0.000
1944 4 2.516 12.869 -5.559 0.006 -0.009 0.008 0.000
22957 4 1.399 9.372 -4.484 0.000 -0.009 0.002 -0.000
6146 4 -2.287 8.108 13.627 -0.001 -0.010 0.009 0.000
901 4 13.805 12.288 -4.809 -0.011 0.009 0.001 0.000
190 4 11.650 1.030 2.593 -0.023 -0.012 0.007 0.000
14355 4 -5.265 -0.842 20.261 -0.014 -0.002 0.003 -0.000
13240 4 0.132 12.477 5.273 -0.004 0.002 -0.009 -0.000
2895 4 3.496 11.626 16.017 0.002 0.002 -0.006 0.000
7040 4 -2.235 12.795 17.996 0.012 0.003 0.002 0.000
1402 4 -4.467 4.474 17.749 -0.003 -0.009 -0.008 0.000
7303 4 -3.445 3.924 1.457 0.012 -0.001 0.005 -0.000
9884 4 -4.113 12.775 8.435 -0.006 0.007 0.000 0.000
28116 4 -4.544 12.969 14.686 -0.004 -0.002 0.003 -0.000
6480 4 -1.673 -1.199 3.603 0.015 -0.006 0.006 -0.000
962 4 4.744 14.778 4.502 0.004 0.010 -0.008 0.000
4592 4 -1.786 11.957 10.214 -0.007 -0.001 0.004 -0.000
19342 4 8.740 9.434 3.196 -0.004 -0.012 -0.004 0.000
6032 4 12.186 9.363 19.195 -0.001 -0.009 0.003 0.000
2514 4 5.887 -0.933 7.758 -0.003 -0.000 -0.003 -0.000
2974 4 5.212 12.115 18.084 0.003 -0.007 0.005 -0.000
7393 4 -4.813 5.116 15.447 -0.010 -0.005 -0.004 0.000
4517 4 13.668 8.230 -0.526 -0.001 0.000 -0.004 0.000
23778 4 -1.371 5.058 2.292 0.011 -0.004 0.008 -0.000
8784 4 5.214 12.522 4.016 -0.006 -0.003 -0.000 -0.000
2124 4 5.299 9.726 19.803 -0.003 -0.010 0.004 -0.000
9058 4 -3.675 4.235 -1.439 0.002 -0.005 0.005 0.000
4168 4 2.506 15.417 14.742 -0.007 0.010 0.006 -0.000
2414 4 5.291 6.826 19.120 0.007 0.005 -0.005 -0.000
20227 4 -4.434 8.587 15.505 -0.000 0.001 -0.001 0.000
17364 4 -3.377 8.301 -4.721 -0.010 -0.008 0.007 -0.000
610 4 10.564 4.055 18.536 0.007 -0.006 0.004 0.000
2666 4 0.371 10.893 19.526 0.004 -0.006 -0.005 -0.000
2643 4 8.870 13.559 10.743 -0.004 -0.011 0.004 -0.000
9486 4 0.080 11.580 8.081 0.013 0.010 0.004 -0.000
3702 4 4.700 9.334 17.307 -0.002 0.005 -0.005 -0.000
6820 4 -4.147 6.467 13.950 -0.001 -0.002 0.003 0.000
206 4 10.323 13.774 17.614 0.013 -0.005 0.006 -0.000
19643 4 -4.509 1.898 4.308 0.001 -0.012 0.002 -0.000
12396 4 3.561 14.378 12.597 0.003 -0.003 -0.003 -0.000
8681 4 -4.656 0.393 -0.514 -0.002 0.011 0.003 0.000
9568 4 1.990 -0.249 4.807 -0.003 -0.001 -0.000 -0.000
81 4 -3.876 10.933 16.567 -0.002 -0.002 0.002 -0.000
1169 4 9.910 9.886 -4.540 -0.014 0.004 -0.002 0.000
3016 4 2.564 12.778 18.669 -0.006 0.002 -0.006 0.000
24233 4 11.573 -2.250 18.115 -0.006 0.002 -0.000 0.000
10361 4 6.161 -1.716 13.998 0.006 0.003 -0.006 0.000
13408 4 4.682 -1.313 -3.156 0.001 -0.005 0.007 0.000
3189 4 5.476 9.402 3.359 0.004 -0.002 -0.004 -0.000
4555 4 0.686 0.681 12.636 0.012 -0.004 0.006 0.000
10769 4 12.001 3.930 -0.965 -0.002 0.009 0.007 0.000
5431 4 11.543 9.636 -2.517 0.007 -0.001 0.001 -0.000
1678 4 13.655 15.312 1.950 -0.002 0.001 0.003 -0.000
403 4 12.427 2.330 5.093 0.009 0.005 -0.005 -0.000
19704 4 9.138 -2.124 -1.025 -0.004 0.003 -0.008 -0.000
6477 4 7.561 -0.856 16.089 -0.010 -0.002 -0.004 -0.000
2215 4 3.830 0.155 3.527 0.004 0.014 -0.002 -0.000
27578 4 12.734 12.260 -1.049 -0.003 0.001 -0.007 0.000
1135 4 -1.371 5.561 -2.570 -0.003 0.002 -0.004 0.000
5834 4 -2.206 9.726 11.400 -0.002 -0.001 -0.008 -0.000
20219 4 -1.157 13.823 11.959 0.004 0.017 -0.004 -0.000
27690 4 1.328 -0.459 0.132 0.003 -0.010 0.002 0.000
16646 4 3.890 14.058 16.805 -0.004 0.004 -0.009 -0.000
42 4 0.511 6.340 18.446 -0.000 0.000 0.003 0.000
641 4 -4.092 12.189 4.456 0.003 -0.000 0.014 0.000
5876 4 -2.931 7.644 10.268 -0.006 -0.002 -0.000 0.000
19814 4 4.972 3.865 -2.043 0.009 0.016 0.010 -0.000
5686 4 9.173 14.912 6.871 0.002 0.005 0.004 0.000
1285 4 -3.054 9.025 4.324 -0.016 -0.005 0.002 -0.000
2075 4 14.594 -1.981 19.897 -0.004 0.006 0.004 -0.000
22958 4 11.113 -2.661 -2.392 -0.008 -0.007 0.002 -0.000
2218 4 11.306 13.862 5.969 0.002 -0.007 -0.006 -0.000
4038 4 -5.472 0.676 12.626 0.006 0.000 0.003 -0.000
2206 4 11.503 14.645 11.404 -0.001 0.011 -0.002 0.000
4894 4 13.557 6.754 18.380 0.003 0.005 -0.019 0.000
23399 4 0.991 14.603 -5.537 -0.009 0.001 -0.004 0.000
2928 4 13.597 12.939 10.896 -0.002 0.010 0.006 -0.000
2487 4 9.499 0.095 10.110 -0.006 0.018 0.013 -0.000
125 4 9.387 0.529 -2.190 -0.005 0.001 -0.008 -0.000
945 4 14.273 -2.373 -3.022 -0.004 0.005 -0.003 0.000
15011 4 -5.569 4.864 12.133 0.010 -0.006 -0.008 0.000
1297 4 13.088 11.329 8.717 0.001 -0.006 0.007 -0.000
2689 4 -5.254 6.851 10.619 0.003 0.009 -0.011 -0.000
2164 4 -4.126 3.877 6.377 0.000 0.003 -0.018 -0.000
23635 4 8.129 14.682 16.255 -0.001 -0.005 -0.001 0.000
6518 4 4.808 13.227 14.276 -0.015 0.005 0.001 -0.000
21294 4 8.984 13.262 21.224 0.008 -0.006 -0.000 -0.000
8249 4 13.934 2.908 -4.462 -0.002 -0.006 -0.007 -0.000
424 4 6.295 -1.514 4.733 -0.007 0.004 0.006 0.000
1930 4 6.794 14.958 2.634 0.004 0.004 0.003 -0.000
6224 4 0.607 15.525 18.460 -0.010 0.003 0.005 0.000
10791 4 4.299 -3.125 7.305 -0.005 0.006 0.000 0.000
9736 4 11.897 -0.750 9.923 0.015 0.001 0.020 0.000
13178 4 -4.247 10.213 -3.327 0.006 0.015 0.001 -0.000
6548 4 -2.120 7.927 18.233 -0.006 0.009 0.006 -0.000
2582 4 12.902 11.762 6.342 0.007 0.010 -0.002 0.000
11454 4 2.707 15.137 5.856 -0.005 0.006 0.009 -0.000
5025 4 -5.136 9.231 10.006 -0.000 0.002 -0.007 -0.000
15584 4 -4.786 -2.049 17.030 0.004 0.002 0.008 -0.000
5114 4 4.167 13.625 7.815 -0.010 0.004 0.008 0.000
335 4 12.770 14.887 -0.398 0.002 0.007 0.003 0.000
31430 4 -4.057 5.843 -3.256 0.013 -0.001 -0.001 -0.000
13520 4 0.505 -1.581 16.333 -0.004 0.006 -0.000 0.000
3064 4 9.679 14.613 -5.252 -0.005 0.002 -0.000 0.000
1858 4 12.507 12.786 19.264 -0.001 -0.001 0.001 -0.000
19785 4 -2.198 -1.851 5.835 0.008 -0.002 -0.004 0.000
28397 4 -3.123 -1.978 19.091 0.000 0.000 -0.003 0.000
5511 4 -4.576 14.595 -3.083 -0.003 -0.002 0.003 0.000
18457 4 4.725 3.350 -4.482 -0.001 -0.007 -0.011 -0.000
7464 4 -4.114 14.292 -5.556 0.005 -0.004 0.008 0.000
19736 4 6.428 14.453 11.584 -0.004 -0.004 -0.001 0.000
5789 4 4.100 -2.187 9.804 -0.005 0.006 -0.001 -0.000
168 4 6.763 13.326 1.002 0.004 0.007 -0.002 -0.000
12916 4 -1.174 -1.434 0.988 0.007 0.006 -0.001 0.000
3425 4 13.974 13.798 5.330 -0.003 0.001 0.006 -0.000
566 4 6.502 14.642 20.473 -0.011 0.006 0.010 0.000
19096 4 3.243 7.925 -5.042 -0.005 -0.008 0.005 -0.000
2967 4 0.058 13.370 19.149 0.000 -0.014 -0.010 0.000
1369 4 14.090 2.730 20.611 -0.001 0.010 0.006 0.000
5712 4 12.792 -3.095 -0.034 -0.006 0.006 -0.002 -0.000
1673 4 13.145 4.705 3.495 -0.011 -0.003 0.003 0.000
20608 4 -4.368 11.870 10.746 0.006 -0.001 -0.004 -0.000
161 4 -3.429 -1.329 7.750 -0.010 0.001 -0.005 -0.000
11555 4 11.304 1.540 19.621 -0.011 0.002 -0.012 -0.000
146 4 -0.085 14.754 0.443 0.001 0.009 -0.006 0.000
247 4 10.803 13.488 9.318 0.001 0.003 0.000 -0.000
31992 4 0.417 -1.502 11.333 -0.001 -0.002 -0.013 -0.000
12387 4 -4.348 11.590 0.919 0.010 -0.000 0.006 0.000
10342 4 13.742 -1.405 12.915 0.007 -0.007 -0.001 0.000
6470 4 12.909 2.499 15.808 -0.002 0.004 0.010 -0.000
1111 4 -1.423 13.077 3.599 0.005 -0.003 -0.006 0.000
1807 4 -1.889 6.131 -5.191 0.005 -0.006 0.000 -0.000
5739 4 9.026 14.441 4.322 0.010 0.006 -0.001 0.000
13471 4 -3.672 -1.063 2.028 0.002 -0.009 -0.001 0.000
123 4 4.305 13.826 1.627 0.002 0.003 0.007 0.000
5877 4 9.373 10.412 -2.293 0.008 -0.000 0.003 -0.000
1380 4 -2.393 12.317 -4.006 0.015 -0.002 0.009 -0.000
6589 4 2.772 3.139 19.383 -0.009 -0.007 0.004 -0.000
25895 4 -0.394 8.358 -5.569 0.010 -0.003 0.008 -0.000
8649 4 12.452 -1.584 15.165 -0.002 0.010 -0.017 0.000
13921 4 12.943 -0.572 4.220 0.005 0.001 -0.005 0.000
20916 4 -1.963 5.342 18.631 -0.008 0.000 -0.002 0.000
9509 4 12.141 0.158 7.356 -0.006 0.011 -0.006 -0.000
7448 4 -4.779 6.332 19.283 0.001 -0.003 0.002 -0.000
11892 4 -3.932 10.797 19.754 -0.006 0.009 -0.008 -0.000
3345 4 3.861 14.493 19.255 0.006 -0.005 0.002 -0.000
1363 4 10.147 -2.137 8.869 -0.001 -0.010 0.008 -0.000
4872 4 -4.726 4.254 9.683 0.012 0.004 -0.005 -0.000
9084 4 -0.905 -2.018 -1.294 0.008 -0.010 -0.002 0.000
1658 4 12.701 13.811 8.337 0.002 -0.003 -0.000 -0.000
19224 4 11.504 12.000 -3.464 -0.001 0.001 0.008 0.000
5080 4 12.097 14.794 -3.363 0.005 0.002 0.001 0.000
15188 4 1.916 14.898 20.517 -0.007 0.002 0.008 -0.000
2401 4 1.142 1.566 20.635 0.007 0.015 -0.000 -0.000
20669 4 13.296 3.467 13.435 -0.001 0.007 0.000 -0.000
5065 4 -3.133 15.268 6.703 -0.000 -0.008 -0.012 -0.000
602 4 9.476 15.004 1.266 -0.000 0.004 0.010 0.000
1231 4 12.560 4.966 19.767 -0.001 -0.005 0.002 0.000
9974 4 -5.651 2.135 1.875 -0.001 0.011 0.007 -0.000
1705 4 2.412 14.235 3.025 -0.019 -0.013 0.000 -0.000
6427 4 -2.835 14.930 4.291 0.001 0.007 0.007 0.000
22354 4 -4.799 8.638 20.892 0.008 -0.001 0.006 0.000
16650 4 -0.506 8.690 19.765 0.003 -0.013 -0.000 0.000
8965 4 13.900 0.094 -3.013 -0.000 -0.007 -0.001 0.000
2984 4 8.741 12.093 -3.559 -0.000 -0.017 0.009 -0.000
6066 4 -0.696 14.853 5.499 0.009 0.003 0.004 0.000
2427 4 11.758 14.310 3.332 0.001 0.002 -0.002 0.000
19694 4 2.860 -0.653 -4.636 0.004 -0.008 -0.003 0.000
5352 4 3.843 14.857 10.275 -0.002 -0.017 0.009 -0.000
27068 4 3.613 -2.079 0.099 0.008 0.015 -0.008 0.000
174 4 -4.216 9.204 -0.035 -0.008 -0.003 0.005 -0.000
2650 4 -5.864 11.585 12.775 -0.012 0.009 0.004 -0.000
5480 4 -5.156 2.714 -2.285 0.002 -0.001 -0.006 -0.000
3420 4 12.951 8.759 8.319 -0.009 -0.001 -0.006 -0.000
7666 4 7.835 -1.154 18.679 0.004 -0.001 -0.009 -0.000
23639 4 -5.531 13.957 11.897 -0.000 -0.001 0.003 -0.000
2191 4 11.287 13.785 0.932 0.009 -0.010 -0.014 -0.000
28230 4 -5.304 -3.479 19.878 -0.001 0.002 0.004 -0.000
900 4 -1.611 11.998 20.448 0.005 -0.006 -0.003 0.000
26701 4 0.942 -2.127 -5.657 0.011 0.001 -0.003 -0.000
575 4 -4.455 7.671 2.769 0.000 -0.000 0.002 -0.000
9126 4 11.188 -2.505 12.166 0.010 -0.007 0.008 -0.000
17239 4 -2.865 -2.741 9.904 0.005 -0.002 -0.002 0.000
1669 4 13.291 -2.082 2.295 -0.011 -0.008 -0.003 -0.000
29259 4 -3.030 14.465 13.763 0.004 0.007 0.002 -0.000
1481 4 10.247 14.709 -1.040 -0.011 -0.002 -0.003 0.000