ITEM: TIMESTEP
12000
ITEM: NUMBER OF ATOMS
32000
ITEM: BOX BOUNDS pp pp pp
-5.324683 75.804683
-4.767823 75.247823
-5.348208 75.828208
ITEM: ATOMS id type x y z vx vy vz q
131 4 12.703 10.007 2.794 0.004 -0.001 -0.003 -0.000
138 4 7.606 10.379 2.619 -0.003 0.011 -0.006 -0.000
174 4 0.815 0.631 3.882 -0.001 -0.004 0.005 -0.000
179 4 12.198 9.753 -4.183 -0.001 -0.011 0.000 0.000
406 4 7.238 7.732 6.382 0.002 0.013 -0.004 0.000
450 4 3.227 -0.803 12.359 0.001 -0.006 0.004 0.000
452 4 11.999 5.070 -4.130 -0.003 -0.015 0.002 0.000
454 4 2.772 2.962 2.827 -0.001 -0.004 0.010 -0.000
460 4 13.885 1.449 -0.715 0.009 -0.001 -0.005 -0.000
487 4 7.708 2.851 3.565 0.001 -0.005 -0.003 0.000
488 4 2.887 5.269 3.502 0.002 -0.005 -0.002 -0.000
494 4 2.796 1.383 4.819 0.001 0.000 0.008 -0.000
527 4 0.929 1.246 -1.663 0.004 0.000 -0.002 -0.000
529 4 0.417 5.863 4.564 0.004 0.004 0.001 -0.000
531 4 -0.846 2.238 7.910 -0.004 -0.004 0.001 0.000
539 4 3.756 7.331 9.213 -0.015 -0.002 -0.005 -0.000
563 4 10.323 11.101 1.456 0.005 -0.003 -0.001 0.000
571 4 12.903 3.276 0.238 0.007 -0.001 0.001 -0.000
574 4 11.672 0.390 1.111 0.008 -0.006 -0.000 -0.000
575 4 3.495 2.261 -1.450 0.009 0.006 -0.005 0.000
576 4 3.340 10.545 -2.287 0.010 0.001 0.005 -0.000
810 4 1.924 5.843 9.195 0.002 0.002 0.003 0.000
847 4 8.436 1.745 7.049 0.005 -0.006 -0.002 0.000
854 4 -1.325 11.295 7.476 0.010 0.007 0.008 0.000
855 4 4.233 -1.792 -4.107 -0.001 0.012 0.004 0.000
889 4 -1.344 6.526 6.619 0.001 0.001 0.000 -0.000
890 4 9.635 7.133 7.158 -0.006 0.004 -0.002 0.000
891 4 4.114 7.922 6.623 0.002 0.014 -0.004 -0.000
892 4 9.423 3.456 5.796 0.007 -0.001 -0.003 0.000
893 4 -0.972 6.147 1.786 0.011 0.009 -0.006 -0.000
895 4 9.470 -0.256 6.789 -0.004 0.008 0.002 0.000
896 4 10.549 5.631 4.961 -0.007 0.003 0.004 0.000
897 4 6.937 -2.510 4.883 0.007 -0.003 0.000 0.000
898 4 11.983 3.475 4.873 0.001 0.005 0.001 0.000
927 4 3.040 7.550 4.212 0.006 -0.007 0.009 0.000
928 4 -1.277 11.265 3.003 -0.004 -0.008 0.006 -0.000
933 4 8.721 7.354 -0.112 -0.003 -0.001 -0.009 0.000
938 4 11.018 5.674 0.558 -0.000 -0.005 -0.012 -0.000
965 4 -2.537 8.857 7.434 0.006 0.013 -0.008 0.000
971 4 6.252 8.325 11.577 -0.006 0.010 0.008 0.000
972 4 5.288 10.714 -0.267 -0.005 -0.008 0.003 -0.000
976 4 8.312 11.619 4.574 -0.009 -0.002 0.003 0.000
1206 4 4.462 0.689 1.525 -0.010 -0.008 0.003 -0.000
1208 4 2.784 -2.562 4.260 0.009 -0.004 0.004 -0.000
1212 4 12.036 7.260 6.572 0.000 0.010 -0.002 0.000
1216 4 9.168 3.801 12.540 -0.008 -0.004 0.010 -0.000
1218 4 3.923 2.119 9.273 -0.003 0.003 0.003 0.000
1244 4 1.239 -0.740 7.884 -0.001 0.002 0.004 0.000
1245 4 4.031 6.360 11.458 0.005 0.008 -0.013 0.000
1248 4 -2.766 -0.196 4.514 -0.003 0.010 -0.003 -0.000
1249 4 5.548 2.246 11.509 -0.000 0.004 -0.001 0.000
1250 4 7.243 2.393 16.325 0.010 -0.001 0.013 -0.000
1252 4 -4.811 -0.217 7.595 0.001 -0.007 0.005 0.000
1257 4 8.787 1.426 11.244 -0.015 0.003 0.004 -0.000
1258 4 14.413 8.703 4.486 0.010 0.004 -0.005 0.000
1285 4 0.514 -0.023 0.598 0.005 0.006 0.009 -0.000
1286 4 8.167 -0.076 4.721 0.000 0.006 -0.000 0.000
1287 4 2.015 6.260 6.484 0.003 -0.010 0.009 -0.000
1288 4 1.765 12.465 10.743 0.006 -0.002 0.000 -0.000
1289 4 9.225 2.884 17.393 -0.002 -0.003 -0.001 -0.000
1292 4 -0.727 4.725 9.339 -0.012 -0.006 0.004 0.000
1293 4 1.108 0.098 12.876 0.002 0.003 0.003 -0.000
1295 4 12.688 5.491 -1.865 0.004 0.008 -0.007 -0.000
1296 4 8.052 5.412 4.572 0.001 -0.001 -0.003 0.000
1298 4 12.556 13.658 6.514 -0.006 0.006 -0.010 -0.000
1300 4 12.358 8.654 11.711 -0.000 -0.006 0.004 -0.000
1324 4 -2.890 3.898 8.055 -0.003 -0.000 0.016 0.000
1329 4 8.223 7.746 9.751 0.004 0.014 -0.004 -0.000
1330 4 -1.170 1.698 4.725 -0.003 0.005 0.005 -0.000
1331 4 3.569 4.540 1.062 -0.002 0.004 0.007 0.000
1335 4 7.606 5.685 7.359 0.000 -0.010 0.003 0.000
1338 4 6.209 8.525 8.698 0.003 0.004 0.003 0.000
1370 4 4.313 10.222 10.117 -0.001 0.015 -0.009 -0.000
1371 4 12.649 -3.204 4.741 -0.006 -0.003 -0.003 -0.000
1373 4 6.275 5.806 2.506 0.006 -0.006 0.007 0.000
1374 4 11.499 11.887 4.897 0.009 -0.003 0.001 -0.000
1375 4 9.472 10.371 9.115 0.001 0.001 -0.006 0.000
1377 4 11.647 -0.579 6.464 0.002 -0.009 0.004 0.000
1610 4 0.523 4.431 7.054 0.002 -0.004 -0.004 -0.000
1612 4 12.258 1.315 15.148 -0.002 -0.015 -0.000 0.000
1643 4 -2.579 1.481 20.143 -0.014 -0.010 0.002 -0.000
1644 4 2.977 0.989 17.520 -0.008 0.001 -0.003 0.000
1646 4 1.526 9.925 10.385 0.013 -0.010 -0.001 -0.000
1647 4 0.976 1.678 15.629 -0.003 0.003 -0.004 0.000
1648 4 -1.202 -0.597 2.396 0.001 -0.007 0.005 -0.000
1650 4 2.766 1.997 10.983 -0.008 -0.002 -0.003 0.000
1651 4 3.000 -0.546 9.986 -0.003 -0.012 -0.002 0.000
1654 4 5.270 1.769 17.949 -0.012 0.004 -0.000 -0.000
1655 4 11.574 1.678 13.015 -0.006 -0.001 0.013 0.000
1656 4 4.158 -0.065 7.514 -0.001 -0.002 0.010 0.000
1683 4 -0.882 9.081 19.473 -0.003 -0.006 0.004 -0.000
1685 4 2.082 -2.571 14.080 0.004 -0.001 -0.010 -0.000
1689 4 1.140 1.611 6.978 -0.003 -0.006 -0.006 0.000
1690 4 3.039 11.505 5.853 -0.006 -0.005 -0.005 -0.000
1692 4 1.376 4.117 -0.235 0.010 0.008 0.006 0.000
1693 4 -2.896 11.960 9.280 0.004 0.002 0.003 0.000
1699 4 10.110 9.955 3.813 0.000 -0.011 0.015 -0.000
1728 4 -2.316 6.904 9.044 -0.003 -0.016 -0.002 -0.000
1729 4 -0.288 11.932 11.545 0.006 0.014 0.004 -0.000
1730 4 10.093 13.210 6.387 -0.009 0.003 -0.002 0.000
1731 4 6.492 14.368 4.198 0.004 -0.002 -0.002 0.000
1734 4 -2.098 8.226 11.952 0.005 -0.000 -0.000 0.000
1735 4 7.751 2.038 13.718 0.005 -0.002 0.002 -0.000
1736 4 12.066 9.425 5.337 -0.004 0.000 -0.002 0.000
1739 4 2.225 9.340 5.890 0.003 0.020 -0.009 -0.000
1763 4 1.116 2.167 18.884 0.007 0.002 0.010 0.000
1766 4 -2.462 9.600 14.177 0.001 0.002 0.004 0.000
1767 4 2.487 11.646 8.294 -0.003 -0.002 -0.005 -0.000
1774 4 13.718 11.674 5.867 -0.008 -0.008 -0.008 -0.000
1775 4 12.405 11.884 12.791 -0.002 -0.000 -0.006 0.000
2012 4 0.633 -1.278 15.359 -0.001 -0.006 0.005 0.000
2045 4 5.092 11.377 7.078 0.005 -0.002 0.009 -0.000
2049 4 -2.450 -0.593 17.225 -0.000 -0.015 -0.003 0.000
2050 4 11.738 8.839 8.194 0.003 -0.003 -0.005 0.000
2051 4 3.703 4.143 12.486 0.012 0.007 -0.006 0.000
2052 4 8.944 8.097 4.694 0.012 0.002 0.000 0.000
2053 4 8.057 9.672 18.744 0.002 0.004 -0.005 -0.000
2055 4 13.785 5.249 13.799 -0.003 -0.004 -0.011 0.000
2086 4 4.024 4.394 9.734 -0.009 0.004 -0.009 0.000
2087 4 1.463 2.636 12.981 -0.011 0.019 0.005 0.000
2088 4 4.695 7.643 2.222 0.013 -0.002 0.002 0.000
2089 4 1.704 4.948 11.160 0.005 0.007 -0.003 -0.000
2091 4 12.439 10.707 9.957 -0.001 0.001 0.001 0.000
2092 4 10.491 8.700 10.797 -0.004 0.002 -0.003 -0.000
2093 4 -3.221 1.569 13.281 0.003 0.003 0.005 -0.000
2125 4 6.596 5.764 10.198 -0.009 -0.005 -0.001 0.000
2129 4 -0.044 9.135 15.411 0.009 -0.000 -0.006 -0.000
2133 4 8.947 13.017 8.888 0.005 0.000 -0.000 -0.000
2134 4 7.808 8.624 13.364 -0.009 0.009 -0.011 -0.000
2135 4 10.249 8.659 14.477 0.004 0.001 -0.001 -0.000
2137 4 11.420 6.643 15.493 0.011 -0.002 0.004 -0.000
2165 4 6.052 10.428 16.593 -0.009 0.004 0.005 -0.000
2170 4 9.968 10.514 12.921 -0.002 0.000 -0.004 0.000
2173 4 8.252 10.197 11.156 0.010 -0.010 -0.009 0.000
2412 4 5.871 6.783 13.706 0.000 0.005 0.003 0.000
2452 4 6.381 4.475 12.124 0.001 -0.006 0.002 -0.000
2453 4 11.275 2.090 18.646 -0.002 0.008 0.000 0.000
2492 4 7.963 13.141 11.849 -0.003 0.003 0.001 -0.000
2493 4 8.679 2.192 19.798 0.012 0.004 0.003 -0.000
2497 4 8.925 6.573 14.562 -0.005 0.015 0.003 -0.000
2525 4 4.914 8.845 14.158 0.000 -0.007 -0.003 0.000
2528 4 8.339 6.058 12.088 0.014 -0.002 0.006 -0.000
2529 4 6.526 3.759 18.693 -0.002 -0.003 -0.001 0.000
2532 4 9.445 2.917 15.068 -0.003 -0.001 -0.003 -0.000
2573 4 10.789 12.203 10.773 0.001 -0.006 -0.014 0.000
166 4 2.536 12.266 3.111 -0.002 0.000 -0.004 -0.000
2487 4 7.522 -0.990 12.205 -0.009 -0.012 -0.006 -0.000
481 4 2.767 -0.068 -0.337 0.001 -0.008 0.004 -0.000
2418 4 9.605 0.248 14.277 0.007 0.012 -0.002 0.000
2414 4 8.146 -1.731 16.570 -0.004 -0.000 -0.002 -0.000
1609 4 6.409 0.021 6.811 -0.001 0.005 0.002 -0.000
1013 4 1.027 12.765 6.233 -0.004 0.009 0.000 -0.000
172 4 0.647 5.781 -2.703 -0.007 -0.004 -0.003 0.000
2022 4 8.121 6.731 18.862 0.004 -0.001 -0.005 0.000
2494 4 3.820 -0.715 15.130 -0.001 0.009 0.006 0.000
413 4 5.959 1.188 4.395 0.004 -0.003 -0.003 -0.000
1405 4 -2.364 9.926 5.329 0.005 -0.003 -0.011 0.000
970 4 6.915 8.130 3.461 0.003 -0.003 0.002 0.000
442 4 9.642 -1.253 0.221 0.003 -0.003 0.009 0.000
2454 4 1.813 7.703 11.519 -0.004 -0.007 -0.008 -0.000
217 4 12.475 4.875 2.697 -0.000 -0.008 -0.000 -0.000
403 4 3.307 3.338 6.860 0.006 -0.004 0.002 0.000
1813 4 7.876 14.849 6.602 0.006 0.003 -0.002 0.000
613 4 4.131 8.448 -2.039 -0.003 -0.001 0.002 -0.000
2455 4 10.293 -0.231 20.154 -0.001 0.002 -0.005 -0.000
163 4 7.604 3.640 1.432 0.006 0.007 -0.004 0.000
2484 4 6.547 0.388 15.708 0.001 -0.008 -0.013 0.000
2013 4 6.799 -1.922 14.608 -0.013 0.000 -0.008 0.000
1815 4 9.205 8.627 1.850 0.004 -0.001 0.009 0.000
2490 4 4.840 5.813 7.830 0.006 0.003 0.001 0.000
214 4 9.131 6.135 2.305 0.007 -0.005 0.002 0.000
1809 4 9.164 9.955 6.438 -0.004 -0.005 0.002 0.000
1814 4 7.625 11.781 17.298 0.000 -0.003 0.003 -0.000
2044 4 -3.721 6.763 6.346 -0.002 -0.004 0.007 0.000
2210 4 2.029 7.521 14.446 0.010 0.007 -0.002 0.000
213 4 7.871 1.473 -3.002 -0.006 -0.001 0.007 0.000
2930 4 5.882 10.450 19.425 -0.001 0.008 0.001 -0.000
8370 4 -0.753 2.267 -0.002 0.015 0.007 -0.007 -0.000
169 4 2.148 6.612 -0.780 0.010 -0.004 0.001 0.000
100 4 11.035 14.603 2.044 -0.003 -0.007 0.007 0.000
173 4 11.440 7.474 3.510 -0.008 0.002 0.005 0.000
130 4 -2.333 1.667 -5.269 -0.018 0.014 -0.001 -0.000
2179 4 8.682 10.198 15.682 -0.001 -0.008 -0.006 -0.000
19 4 11.578 4.388 7.527 -0.003 -0.006 0.016 0.000
2527 4 -0.200 6.817 16.231 -0.001 0.003 -0.009 -0.000
127 4 9.931 5.857 -1.737 -0.011 -0.002 -0.006 0.000
19809 4 8.179 7.653 -2.502 -0.003 0.003 -0.001 -0.000
2498 4 11.050 6.949 12.716 0.011 -0.000 -0.011 -0.000
2534 4 7.653 6.913 21.443 -0.000 -0.002 -0.001 0.000
3332 4 2.079 3.542 8.800 0.003 -0.007 -0.009 0.000
2812 4 8.161 0.636 17.974 0.003 -0.002 -0.001 -0.000
1732 4 6.806 11.219 8.661 0.013 0.005 0.003 -0.000
1220 4 9.488 5.370 9.891 0.004 0.002 0.012 -0.000
2041 4 2.933 7.851 20.723 0.003 -0.006 0.007 0.000
11176 4 7.036 1.426 9.121 -0.003 0.007 0.002 0.000
964 4 1.471 -2.726 0.313 -0.000 0.007 -0.004 -0.000
1055 4 4.194 14.653 3.918 -0.004 0.009 0.002 0.000
1364 4 -3.512 8.966 9.880 0.001 -0.006 0.003 0.000
1368 4 2.651 9.603 3.018 -0.007 -0.002 -0.002 -0.000
19764 4 -3.270 8.670 -1.142 -0.004 0.000 -0.005 0.000
802 4 0.614 0.885 10.115 -0.005 0.000 0.001 0.000
2619 4 10.076 10.961 17.488 -0.001 -0.005 -0.006 -0.000
2212 4 4.185 11.742 14.884 0.004 0.004 0.006 -0.000
6119 4 -0.190 6.648 10.487 -0.003 0.002 -0.018 -0.000
901 4 5.753 3.667 8.236 -0.001 0.013 0.008 0.000
2814 4 1.783 -0.358 19.639 0.006 0.000 0.008 -0.000
1403 4 6.802 12.760 14.321 0.005 -0.007 -0.005 -0.000
1611 4 2.569 -1.830 17.503 -0.002 0.002 0.008 -0.000
2011 4 11.400 2.058 7.146 -0.003 0.009 -0.010 0.000
2896 4 5.417 13.452 8.589 0.005 -0.002 -0.003 -0.000
1684 4 -1.066 11.685 14.486 -0.001 -0.001 0.004 0.000
2973 4 14.399 12.230 11.349 -0.002 0.003 0.000 -0.000
1682 4 2.632 -4.001 18.352 -0.001 -0.006 -0.002 -0.000
2006 4 4.720 3.567 16.439 -0.004 0.008 -0.001 0.000
56 4 9.884 -4.322 1.119 0.013 0.007 -0.005 -0.000
2816 4 0.412 -0.153 17.197 -0.004 -0.015 0.006 0.000
851 4 11.359 3.540 16.644 0.010 -0.001 0.009 0.000
8769 4 -3.231 1.703 6.271 -0.006 -0.005 0.010 0.000
1413 4 13.591 13.660 8.906 0.018 0.007 0.004 0.000
2483 4 4.528 6.785 16.554 0.006 0.007 0.000 0.000
541 4 13.622 7.386 -3.578 -0.002 0.016 -0.000 0.000
2603 4 6.680 13.009 20.253 0.009 -0.008 -0.002 0.000
2892 4 9.203 12.963 15.851 0.011 0.002 -0.008 -0.000
60 4 10.078 -3.669 3.425 0.009 -0.005 0.005 0.000
562 4 -0.043 -2.788 -4.060 0.005 -0.006 0.006 0.000
3289 4 3.589 1.792 20.384 0.007 0.003 -0.000 -0.000
2965 4 -0.093 9.401 12.375 -0.001 0.009 -0.006 -0.000
1765 4 3.321 9.000 12.589 -0.003 -0.006 0.003 0.000
2176 4 3.475 14.024 16.499 -0.006 0.003 0.003 0.000
1019 4 10.083 12.847 3.561 0.008 0.012 -0.003 -0.000
212 4 9.733 3.781 -3.254 0.000 -0.002 -0.000 0.000
3247 4 7.095 4.965 14.361 0.006 0.002 -0.001 -0.000
809 4 9.155 3.399 8.569 -0.004 -0.009 -0.004 -0.000
1243 4 -0.580 4.106 17.954 0.000 0.003 -0.005 -0.000
3005 4 3.609 9.190 16.039 0.004 0.003 -0.002 -0.000
973 4 13.263 7.974 2.146 0.003 -0.004 -0.001 -0.000
653 4 12.845 12.579 -2.627 -0.003 0.002 -0.007 -0.000
2416 4 -1.526 -2.489 3.947 -0.006 -0.005 -0.014 -0.000
977 4 13.147 7.578 -0.754 0.004 0.006 0.005 -0.000
8778 4 13.848 -0.765 8.647 -0.001 0.003 0.003 0.000
10338 4 4.621 -2.754 13.662 0.004 0.001 -0.005 0.000
2564 4 -1.016 10.797 17.504 -0.005 -0.002 -0.004 0.000
88 4 2.313 3.965 -3.574 -0.007 0.009 0.001 0.000
6159 4 -2.845 4.993 16.402 -0.008 -0.003 0.004 0.000
1727 4 -1.170 2.376 14.442 -0.004 -0.009 -0.001 0.000
499 4 14.467 -1.339 5.911 0.009 -0.007 -0.003 -0.000
2969 4 11.803 6.545 18.472 -0.001 0.007 -0.006 0.000
2860 4 13.315 2.938 19.529 -0.002 -0.001 0.007 -0.000
492 4 3.998 4.770 -1.237 0.010 -0.006 0.014 0.000
2420 4 10.282 4.753 18.911 0.001 0.000 -0.006 0.000
10774 4 3.411 1.376 13.387 0.006 -0.005 0.001 0.000
2415 4 5.217 -1.284 16.971 -0.001 0.003 -0.008 -0.000
2417 4 4.016 -3.289 16.017 -0.010 -0.004 0.005 0.000
841 4 1.626 1.963 0.748 0.002 -0.003 -0.006 -0.000
568 4 5.495 6.464 4.964 -0.003 0.006 -0.001 0.000
2974 4 1.954 10.840 16.238 0.012 -0.002 -0.002 -0.000
451 4 6.936 -3.134 10.017 0.006 0.008 -0.003 0.000
1409 4 1.647 10.116 13.997 -0.009 -0.001 0.012 -0.000
10775 4 5.349 -0.424 10.471 -0.002 -0.002 0.001 -0.000
2167 4 -2.917 7.620 15.957 -0.010 -0.006 -0.009 0.000
1617 4 11.455 -1.407 13.306 0.008 0.010 -0.000 0.000
979 4 11.074 8.429 -2.367 0.003 -0.002 -0.001 0.000
9968 4 6.062 4.204 5.875 -0.005 0.009 -0.000 0.000
19763 4 -0.363 3.898 -2.283 -0.002 0.005 -0.008 0.000
175 4 11.245 8.320 0.765 -0.003 -0.000 0.005 0.000
444 4 1.335 8.150 8.691 -0.021 0.005 0.005 -0.000
864 4 10.980 -1.751 15.899 -0.002 0.006 0.006 0.000
3013 4 10.694 13.468 18.758 0.008 0.012 -0.003 0.000
1376 4 11.884 11.869 7.861 -0.002 -0.007 0.001 0.000
49 4 5.179 -2.074 -1.190 0.003 0.002 -0.001 -0.000
1649 4 1.202 3.421 4.775 0.014 -0.001 0.000 -0.000
1294 4 1.249 15.115 7.481 0.002 0.001 0.005 0.000
1211 4 5.087 -2.295 8.236 -0.002 -0.005 0.000 -0.000
491 4 11.816 -2.425 -3.307 -0.000 0.014 -0.000 -0.000
9563 4 -1.424 0.318 15.461 0.005 0.007 0.004 -0.000
1209 4 5.117 -3.022 3.018 -0.001 0.001 0.001 0.000
937 4 10.288 1.280 5.442 -0.007 -0.010 0.005 0.000
4520 4 0.264 3.265 -5.012 0.009 -0.004 -0.012 -0.000
1260 4 6.817 1.353 0.961 -0.000 0.007 -0.001 0.000
610 4 0.511 8.818 4.150 -0.006 -0.002 0.004 -0.000
813 4 10.015 -0.690 3.016 -0.004 0.003 -0.004 0.000
19455 4 6.662 8.839 -1.353 0.008 0.001 0.003 -0.000
27937 4 6.779 -0.917 2.649 0.003 -0.004 0.001 0.000
534 4 9.902 7.522 -4.923 0.002 0.007 -0.003 -0.000
1363 4 -1.653 4.569 3.500 -0.010 0.007 -0.003 -0.000
1325 4 5.663 13.922 6.251 0.007 0.006 -0.001 0.000
2605 4 -1.000 15.123 12.859 -0.000 -0.002 0.008 -0.000
1007 4 6.748 8.732 0.837 -0.011 -0.002 -0.005 -0.000
19732 4 -0.288 8.995 6.703 0.005 -0.000 0.001 0.000
19704 4 12.804 0.242 -3.210 0.005 0.003 0.003 0.000
22 4 7.739 -4.026 2.165 0.002 0.004 0.002 0.000
19816 4 -1.940 10.671 0.723 -0.001 -0.003 -0.010 -0.000
9973 4 9.029 -2.348 14.173 -0.009 0.006 -0.001 0.000
453 4 10.211 3.998 2.889 -0.010 -0.004 -0.002 -0.000
852 4 5.492 3.068 2.668 -0.002 0.002 -0.011 0.000
881 4 -1.706 2.996 10.102 0.001 0.001 0.002 0.000
572 4 4.810 9.276 4.321 0.002 -0.012 0.005 0.000
19413 4 -1.871 6.866 -0.370 0.010 -0.002 -0.001 -0.000
1365 4 1.154 4.304 2.188 -0.006 0.006 -0.014 -0.000
525 4 -3.224 2.415 3.348 -0.001 -0.011 -0.001 -0.000
6117 4 1.870 5.080 13.708 0.006 -0.007 0.016 -0.000
1696 4 7.597 12.453 6.748 -0.008 -0.006 -0.002 0.000
143 4 12.964 1.401 5.577 0.004 -0.012 -0.011 0.000
1641 4 0.450 -2.680 17.821 0.005 0.001 0.011 -0.000
1217 4 4.498 -0.205 4.010 -0.004 0.002 -0.008 -0.000
103 4 12.347 -0.485 3.782 -0.005 -0.000 -0.011 -0.000
2456 4 13.919 -0.183 12.002 0.005 -0.002 0.002 0.000
2168 4 4.721 12.704 18.287 0.008 0.006 -0.010 -0.000
607 4 2.902 9.289 0.393 -0.010 0.006 -0.002 -0.000
11563 4 5.913 -2.876 18.453 -0.005 -0.008 0.005 -0.000
1687 4 -0.985 1.847 17.309 0.008 -0.005 0.005 -0.000
523 4 -2.218 7.520 4.756 0.004 -0.002 0.004 -0.000
536 4 11.063 1.602 3.226 0.003 -0.000 0.006 -0.000
941 4 11.023 10.904 -1.075 -0.006 0.001 0.004 0.000
801 4 -4.328 -2.332 8.857 0.001 0.018 -0.004 0.000
1725 4 -0.860 9.074 9.902 -0.003 -0.007 0.002 0.000
2130 4 3.386 11.538 12.738 -0.004 -0.002 -0.002 -0.000
2946 4 9.668 8.122 16.960 -0.005 -0.003 0.003 -0.000
566 4 -0.887 8.557 2.222 -0.005 -0.004 0.009 -0.000
8377 4 10.009 -2.207 5.559 -0.002 0.002 -0.003 0.000
464 4 12.580 1.267 10.782 0.008 -0.005 -0.002 -0.000
961 4 -4.602 9.270 6.224 -0.001 -0.002 0.017 0.000
1283 4 -1.172 -0.015 12.750 -0.018 0.009 -0.002 0.000
2575 4 13.268 13.058 17.145 -0.009 0.008 0.006 -0.000
1053 4 12.617 12.426 2.375 0.004 0.009 0.000 -0.000
167 4 5.515 6.708 -0.321 -0.010 -0.001 -0.010 0.000
132 4 -0.533 0.202 -3.728 -0.001 0.004 -0.001 0.000
206 4 1.860 7.148 1.761 0.000 -0.008 -0.005 -0.000
493 4 6.699 -0.760 -4.060 0.003 0.006 0.000 -0.000
1686 4 2.503 3.897 15.495 -0.014 -0.006 0.001 0.000
9930 4 -0.657 2.270 2.460 -0.003 -0.005 -0.008 -0.000
3405 4 -2.997 8.998 17.868 -0.009 -0.005 -0.003 0.000
4479 4 -0.199 -0.988 5.257 -0.002 -0.007 -0.002 0.000
19325 4 5.802 3.128 -1.419 0.006 -0.009 -0.010 0.000
2859 4 0.578 -2.953 20.195 -0.002 0.001 -0.008 0.000
5800 4 -1.913 14.315 10.268 0.005 0.012 -0.016 -0.000
926 4 0.528 -1.332 10.313 -0.005 -0.005 -0.004 0.000
19304 4 11.950 3.412 -2.066 -0.017 0.004 -0.004 -0.000
7276 4 1.014 -4.377 15.918 0.004 0.004 -0.005 -0.000
208 4 0.381 10.400 -1.418 0.009 -0.000 0.006 0.000
10340 4 5.513 -0.031 13.438 -0.014 0.005 -0.002 0.000
1016 4 8.370 12.662 0.397 -0.002 0.003 0.005 -0.000
2106 4 7.045 7.453 16.220 -0.003 0.009 -0.007 -0.000
9974 4 9.498 0.550 9.136 0.007 0.004 -0.004 -0.000
5757 4 -2.272 14.339 7.542 -0.002 0.000 -0.001 -0.000
2485 4 -2.937 3.940 18.429 0.002 -0.001 0.004 0.000
1659 4 13.303 4.657 17.620 -0.007 0.005 -0.002 0.000
19778 4 13.976 2.465 -3.090 0.008 0.000 0.007 -0.000
2042 4 -0.273 6.711 13.315 -0.009 -0.012 -0.005 0.000
1702 4 10.638 8.657 19.041 -0.016 0.008 -0.002 -0.000
1096 4 -1.737 10.198 -2.477 -0.005 -0.003 -0.006 0.000
1622 4 13.528 -3.239 16.423 0.002 -0.004 0.006 0.000
168 4 0.786 10.410 1.782 -0.001 -0.009 -0.006 0.000
643 4 -1.524 12.353 -0.924 0.002 -0.002 0.012 0.000
9565 4 0.854 -3.381 7.389 -0.002 0.001 -0.005 -0.000
6120 4 3.741 -2.191 19.772 0.002 -0.004 -0.001 0.000
2213 4 12.660 14.136 11.545 -0.001 -0.001 -0.007 0.000
3062 4 11.194 11.530 15.242 0.005 0.006 0.005 0.000
2047 4 3.487 10.569 18.194 -0.001 0.005 -0.005 -0.000
95 4 10.324 -0.653 11.291 0.005 0.000 0.003 0.000
126 4 0.093 13.556 3.446 0.006 -0.002 0.000 -0.000
3202 4 1.514 9.043 18.243 0.006 0.003 -0.002 -0.000
192 4 12.802 -1.157 -0.911 -0.004 -0.007 -0.006 0.000
2862 4 13.708 -0.376 16.313 -0.001 0.012 -0.012 0.000
528 4 -3.195 3.944 -0.188 0.007 0.004 -0.006 -0.000
5758 4 -0.644 4.179 12.619 -0.003 -0.000 -0.002 -0.000
982 4 12.000 14.488 4.261 0.001 -0.001 0.013 0.000
2884 4 3.269 3.663 18.850 0.001 -0.002 0.002 0.000
19736 4 9.724 3.286 -1.144 0.003 0.000 0.002 0.000
2204 4 -4.209 13.035 10.967 0.007 0.001 0.002 -0.000
1618 4 11.864 6.633 10.105 0.009 -0.005 0.010 -0.000
1721 4 -5.116 0.598 15.095 -0.010 0.007 -0.002 0.000
697 4 10.568 11.854 -3.452 0.010 0.007 0.002 -0.000
1621 4 12.771 0.644 20.445 -0.005 -0.015 0.004 -0.000
10332 4 1.670 -1.974 -2.673 -0.001 -0.002 0.002 0.000
602 4 -2.532 12.147 -3.007 -0.008 -0.008 -0.000 -0.000
2430 4 13.353 2.161 17.148 -0.005 -0.006 -0.007 0.000
3612 4 4.560 -0.105 19.226 -0.014 -0.001 -0.001 0.000
2697 4 -1.259 12.813 18.510 -0.004 0.003 -0.002 -0.000
207 4 -3.670 8.655 -3.372 0.003 0.004 -0.004 -0.000
8737 4 10.762 -3.236 -1.360 0.003 -0.002 0.008 -0.000
1810 4 1.883 12.749 14.354 -0.006 0.002 0.003 -0.000
1012 4 5.024 10.438 2.081 -0.001 -0.001 -0.007 -0.000
19765 4 -5.247 10.129 -2.045 -0.010 0.004 -0.002 -0.000
1010 4 1.095 11.331 4.371 0.000 0.005 -0.004 0.000
2460 4 8.919 5.523 16.721 -0.001 -0.009 -0.004 0.000
2015 4 9.747 -2.178 9.112 0.000 -0.001 -0.007 -0.000
2458 4 10.243 0.564 17.131 -0.003 -0.004 0.005 -0.000
11 4 8.995 -1.587 -1.997 -0.001 0.008 -0.002 -0.000
455 4 13.711 5.720 0.605 -0.000 0.008 -0.012 -0.000
569 4 0.754 12.731 1.218 0.004 -0.000 0.005 -0.000
1723 4 -2.870 3.935 12.931 -0.003 0.006 0.002 0.000
497 4 13.489 2.558 9.231 0.005 0.002 0.004 0.000
19363 4 3.019 6.183 -3.481 0.002 0.002 0.005 0.000
19682 4 -1.225 -2.028 -2.112 0.003 0.000 0.007 0.000
1361 4 -1.353 12.291 5.081 0.001 0.002 0.001 0.000
2972 4 2.379 12.982 18.765 -0.010 -0.002 0.001 -0.000
858 4 13.188 4.151 11.399 0.007 -0.001 -0.002 -0.000
2185 4 14.055 11.448 15.026 0.004 -0.004 -0.003 0.000
8765 4 -3.541 0.274 -1.156 -0.005 -0.005 0.013 0.000
1803 4 -3.890 11.512 6.659 -0.004 0.000 -0.017 0.000
1661 4 10.628 2.829 10.628 -0.008 0.003 -0.002 -0.000
1369 4 -2.452 13.243 12.814 -0.003 0.004 -0.008 0.000
19663 4 11.807 -2.263 1.427 -0.004 0.000 0.000 0.000
2606 4 4.174 11.758 20.373 -0.003 -0.002 0.004 -0.000
2535 4 14.259 9.092 14.245 0.004 0.005 -0.002 -0.000
489 4 -3.496 -2.456 2.755 0.007 -0.005 0.011 -0.000
1251 4 11.421 -0.803 8.984 -0.002 -0.005 -0.006 0.000
7233 4 -0.789 -0.618 19.106 0.008 0.007 0.002 0.000
1008 4 2.073 14.801 1.769 -0.007 0.011 -0.013 -0.000
19774 4 8.427 12.776 -4.746 0.003 -0.005 -0.005 0.000
19810 4 8.639 10.154 -0.095 0.013 -0.005 0.004 -0.000
203 4 -3.200 10.330 -5.021 -0.009 0.004 -0.005 -0.000
19773 4 5.367 0.277 -1.528 0.006 -0.009 0.011 0.000
19895 4 4.401 13.649 0.618 0.005 -0.007 -0.004 -0.000
1005 4 5.729 11.920 4.345 0.000 0.005 -0.007 -0.000
1851 4 10.137 12.946 13.451 0.005 0.007 -0.002 0.000
8762 4 -2.037 -1.770 6.294 -0.007 0.002 -0.011 0.000
146 4 13.568 10.011 -2.454 -0.004 -0.006 0.002 -0.000
19771 4 -3.542 6.245 -1.822 0.003 -0.008 0.006 -0.000
55 4 3.248 -2.201 6.901 -0.011 -0.002 0.005 -0.000
19647 4 6.076 -3.412 -3.368 0.002 0.005 0.004 -0.000
19814 4 -0.033 8.058 0.019 -0.002 0.006 -0.013 0.000
165 4 3.274 12.671 -4.940 0.002 -0.003 -0.004 0.000
4234 4 -4.888 11.840 -4.004 0.000 -0.003 0.009 0.000
533 4 7.002 3.978 -3.369 -0.001 0.002 -0.010 0.000
91 4 7.583 5.043 -0.978 0.008 -0.009 0.011 0.000
6109 4 -0.303 4.368 15.185 0.011 -0.005 -0.003 0.000
2219 4 13.345 14.091 19.837 -0.002 -0.011 0.000 -0.000
2867 4 12.787 5.139 20.790 -0.002 0.006 0.006 0.000
2488 4 -2.556 -1.609 10.562 -0.009 0.001 0.008 0.000
816 4 6.416 -2.967 0.765 -0.010 0.003 -0.001 0.000
2976 4 12.119 9.207 16.226 -0.002 -0.006 -0.004 -0.000
3404 4 -2.645 9.346 21.247 -0.005 0.006 0.021 0.000
1695 4 14.320 7.182 11.930 -0.002 0.015 -0.008 -0.000
614 4 7.312 12.949 2.404 0.002 -0.013 0.007 0.000
19853 4 1.667 12.028 -3.365 -0.007 -0.002 0.004 -0.000
7474 4 -1.487 7.040 18.088 -0.003 0.002 0.008 -0.000
1615 4 12.688 -2.287 11.240 -0.004 0.015 -0.007 0.000
2934 4 5.974 8.228 18.105 0.013 0.018 0.001 0.000
2643 4 0.492 12.564 16.830 -0.003 -0.001 0.007 -0.000
9977 4 11.868 -4.202 15.135 -0.004 -0.012 -0.009 0.000
96 4 3.182 0.550 -3.815 0.008 -0.008 0.000 0.000
863 4 13.607 3.083 15.063 0.005 -0.000 -0.005 0.000
133 4 10.181 -0.079 -3.981 -0.002 -0.009 0.002 -0.000
1297 4 13.672 6.056 5.073 -0.006 -0.009 0.002 0.000
6480 4 -1.382 -0.139 8.283 0.008 -0.003 -0.011 0.000
9922 4 3.743 -1.533 1.852 0.001 0.008 -0.000 -0.000
19724 4 -0.392 7.652 -2.408 -0.000 0.012 0.004 0.000
1761 4 -3.578 10.927 16.025 0.004 0.012 0.006 -0.000
2699 4 8.434 14.690 20.615 0.003 0.008 0.007 0.000
19407 4 9.029 14.883 -2.928 -0.000 -0.003 -0.004 0.000
2121 4 -3.790 0.750 10.072 -0.006 0.004 0.005 0.000
2105 4 11.608 4.198 13.783 -0.001 -0.003 0.007 -0.000
2481 4 -2.162 -3.185 12.683 0.007 0.004 -0.000 -0.000
1411 4 2.087 14.090 4.933 0.006 -0.001 -0.003 0.000
2004 4 9.179 -2.894 11.540 -0.007 -0.011 -0.002 0.000
19730 4 1.765 8.772 -1.787 0.000 0.007 0.004 0.000
498 4 5.046 1.862 -4.012 -0.005 0.009 0.010 0.000
2163 4 -2.863 10.422 11.517 0.014 0.001 -0.002 0.000
456 4 7.283 -0.863 -0.371 0.000 0.008 -0.008 0.000
9182 4 11.496 -4.040 7.153 0.004 -0.012 -0.008 -0.000
2444 4 -4.117 7.903 19.493 -0.009 -0.001 -0.001 -0.000
7000 4 4.925 14.179 21.306 -0.007 -0.011 0.001 0.000
978 4 12.992 9.622 0.279 -0.002 0.007 -0.006 -0.000
1807 4 -3.720 13.605 15.549 0.000 -0.001 0.005 0.000
6073 4 -4.564 1.296 18.014 -0.017 -0.008 -0.003 -0.000
654 4 2.395 11.691 -0.242 -0.001 0.008 0.006 -0.000
4599 4 -2.510 13.030 1.557 -0.003 -0.001 0.005 0.000
5706 4 -3.119 6.246 13.979 -0.006 0.002 0.014 0.000
1281 4 -2.247 2.242 -2.081 -0.001 -0.005 0.007 0.000
1653 4 4.615 -2.664 11.056 0.008 -0.004 0.000 0.000
9126 4 -2.956 -3.933 6.765 0.005 -0.008 0.010 0.000
1222 4 13.741 -2.672 13.272 -0.004 0.000 0.002 0.000
6479 4 -3.087 -3.778 20.007 -0.003 -0.003 0.001 -0.000
18934 4 8.395 12.307 -2.130 0.006 -0.004 0.013 0.000
3 4 -5.028 3.681 10.080 -0.000 0.008 0.006 -0.000
1135 4 13.570 12.463 -0.150 0.005 0.003 0.003 -0.000
2021 4 10.937 3.034 20.916 -0.009 -0.001 0.005 0.000
1282 4 -2.891 4.145 5.515 0.017 0.005 0.006 -0.000
19776 4 -4.216 5.691 4.128 0.004 0.008 -0.004 -0.000
3401 4 -3.225 11.018 19.367 0.010 0.002 0.005 0.000
3292 4 5.236 6.665 20.854 0.000 -0.010 0.010 0.000
170 4 -3.835 12.222 -0.299 -0.002 0.015 -0.008 0.000
19820 4 5.671 11.020 -2.747 -0.010 0.002 0.006 -0.000
605 4 -3.808 8.758 2.061 0.013 -0.003 -0.002 -0.000
1336 4 13.311 1.898 2.788 0.002 -0.014 0.001 -0.000
13156 4 -4.177 -1.578 -3.072 -0.007 -0.006 -0.006 0.000
3017 4 7.049 14.608 16.543 -0.003 0.004 -0.004 0.000
2005 4 2.524 -3.058 9.173 -0.002 0.001 -0.015 -0.000
1606 4 -4.341 -2.226 -0.713 0.006 0.002 0.008 0.000
5036 4 -4.984 9.888 3.758 -0.002 -0.002 0.005 0.000
6516 4 -4.708 6.690 10.078 0.007 -0.001 0.013 0.000
19699 4 8.115 -3.745 -1.218 0.003 -0.001 0.000 -0.000
3411 4 12.147 11.441 19.900 -0.004 0.008 -0.001 -0.000
449 4 -3.058 1.437 0.861 -0.000 0.003 -0.001 -0.000
2124 4 -2.574 5.572 11.226 -0.000 0.011 -0.012 -0.000
9539 4 -0.130 -2.151 12.639 -0.002 0.002 0.006 -0.000
1367 4 -4.028 11.270 13.620 0.001 -0.008 0.003 0.000
9972 4 7.478 -1.054 8.323 -0.002 -0.004 0.005 0.000
5719 4 -0.677 -3.047 15.026 0.001 0.001 -0.007 -0.000
2825 4 13.367 -1.683 20.344 0.006 0.008 0.010 -0.000
18962 4 2.468 9.545 -4.300 -0.000 0.000 0.000 0.000
6476 4 -3.209 2.195 16.046 -0.016 0.004 0.008 0.000
822 4 14.277 -3.424 7.987 -0.001 0.011 0.001 -0.000
19408 4 4.534 13.039 -2.001 -0.003 0.011 0.004 -0.000
7437 4 -3.591 13.744 19.962 0.013 -0.012 -0.003 0.000
6 4 -2.506 -3.217 -4.504 0.015 0.002 -0.004 0.000
19406 4 5.581 6.443 -2.347 -0.006 0.005 0.008 -0.000
18603 4 5.968 8.698 -3.879 0.010 -0.001 0.005 -0.000
2820 4 12.941 9.023 18.680 0.005 -0.006 0.003 -0.000
612 4 6.478 13.841 -3.757 -0.012 -0.007 0.005 0.000
2132 4 10.525 13.830 -1.308 0.002 0.004 -0.005 -0.000
1806 4 -1.287 14.125 16.324 0.012 -0.004 -0.003 0.000
3812 4 12.361 14.042 14.036 0.006 -0.002 -0.000 -0.000
1620 4 10.611 -2.328 19.170 0.008 0.012 0.005 -0.000
862 4 14.381 6.708 9.425 -0.005 0.009 0.001 -0.000
2931 4 1.625 11.147 20.107 -0.001 0.001 -0.002 -0.000
649 4 7.729 10.486 -4.284 -0.002 -0.001 -0.003 0.000
2932 4 13.972 7.409 16.939 0.011 -0.016 -0.003 0.000
2886 4 7.912 4.672 20.584 -0.005 -0.007 -0.003 0.000
1002 4 -0.604 14.733 0.429 0.003 -0.008 -0.007 0.000
2568 4 -1.186 4.353 20.230 0.003 0.002 -0.006 0.000
140 4 6.722 13.938 -0.884 -0.005 -0.006 0.010 0.000
6111 4 -3.749 -1.978 14.921 -0.002 -0.004 0.009 0.000
19807 4 -5.226 13.604 -1.993 -0.009 -0.004 -0.002 0.000
8690 4 12.883 -4.582 -2.377 0.005 -0.002 -0.004 0.000
2046 4 5.358 -3.262 21.385 0.009 -0.001 -0.008 -0.000
1303 4 13.892 2.149 12.700 0.001 0.006 0.000 0.000
1452 4 4.206 13.185 10.920 0.002 -0.003 0.000 -0.000
2217 4 8.030 14.673 13.687 0.000 -0.003 -0.001 -0.000
8785 4 13.893 -0.950 1.863 0.000 -0.008 -0.011 -0.000
1821 4 14.447 13.771 4.446 0.011 -0.007 0.008 -0.000
19336 4 8.204 6.099 -3.864 -0.002 -0.002 -0.003 0.000
19775 4 13.998 13.755 -4.420 -0.006 0.003 -0.005 -0.000
5439 4 -4.165 13.820 5.652 0.002 -0.008 -0.002 0.000
579 4 8.552 15.087 0.855 -0.010 0.003 0.002 0.000
19769 4 -1.170 14.284 -3.942 -0.004 0.007 -0.011 0.000
2894 4 10.640 12.637 21.123 -0.009 0.007 -0.009 0.000
19298 4 4.598 4.518 -4.132 0.008 0.003 -0.001 0.000
3007 4 8.875 12.036 19.479 -0.008 -0.005 0.003 0.000
178 4 13.980 11.181 -4.685 -0.004 -0.002 0.008 -0.000
2084 4 -4.577 0.035 3.006 -0.000 -0.007 -0.002 -0.000
13594 4 -4.285 -4.121 11.675 0.010 -0.005 -0.002 0.000
2023 4 6.294 1.572 20.697 0.003 -0.007 -0.009 0.000
8365 4 3.936 -3.589 0.589 0.001 0.006 -0.008 0.000
20 4 9.619 -3.639 -3.486 0.002 -0.002 -0.009 -0.000
13199 4 -0.079 -4.481 2.888 -0.001 -0.012 0.004 -0.000
2162 4 -4.577 13.246 8.225 0.008 0.002 0.000 0.000
2891 4 9.963 6.582 20.653 -0.003 -0.008 -0.003 0.000
81 4 -4.356 1.008 -3.768 -0.002 0.005 0.013 0.000
19698 4 14.357 -1.962 -2.522 0.010 0.010 0.013 0.000
3065 4 11.466 15.028 16.305 0.003 -0.008 -0.011 -0.000
2563 4 -4.944 4.277 17.691 0.003 -0.010 -0.004 0.000
1614 4 8.127 -3.703 7.304 -0.024 -0.003 0.002 -0.000
3285 4 -0.245 1.367 21.334 -0.007 -0.005 -0.004 -0.000
2616 4 9.076 15.132 18.393 -0.002 0.004 -0.008 0.000
4157 4 -4.521 5.809 0.717 -0.002 -0.003 -0.004 0.000
5634 4 -4.635 8.693 13.156 0.004 -0.007 0.009 0.000
11180 4 7.863 -4.004 16.999 -0.004 0.006 -0.005 -0.000
19768 4 -2.826 6.704 -4.841 -0.006 0.004 0.003 0.000
6877 4 -5.106 1.542 20.480 -0.002 -0.005 -0.007 -0.000
9966 4 2.304 -3.167 11.858 -0.013 0.001 -0.004 0.000
949 4 14.290 4.941 -3.894 0.001 0.006 0.002 0.000
1412 4 10.067 14.959 11.716 0.001 -0.002 -0.001 -0.000
4639 4 -3.550 11.865 3.998 0.001 -0.007 0.002 0.000
619 4 11.971 15.226 -3.727 0.002 0.010 -0.014 -0.000
2523 4 -3.346 -0.918 20.128 0.003 -0.001 -0.003 -0.000
19284 4 -5.307 2.014 -1.170 0.003 0.002 -0.005 0.000