ITEM: TIMESTEP
23000
ITEM: NUMBER OF ATOMS
32000
ITEM: BOX BOUNDS pp pp pp
-5.682759 76.162759
-4.593096 75.073096
-4.995158 75.475158
ITEM: ATOMS id type x y z vx vy vz q
488 4 2.947 11.366 11.412 -0.003 -0.004 0.002 0.000
529 4 2.411 10.220 16.069 -0.010 -0.001 0.007 0.000
531 4 -1.369 9.745 12.412 -0.005 -0.004 0.006 0.000
810 4 -1.189 -3.265 14.994 0.004 -0.005 -0.003 -0.000
847 4 5.564 10.437 12.221 -0.001 -0.003 0.008 -0.000
890 4 3.394 3.204 12.155 -0.001 -0.004 -0.002 0.000
892 4 6.497 3.936 18.756 0.005 -0.007 0.012 -0.000
893 4 8.582 5.271 -0.793 0.003 0.002 -0.005 -0.000
896 4 10.158 5.699 14.493 0.005 -0.008 -0.004 0.000
1206 4 7.206 8.892 -3.460 0.003 -0.002 -0.007 0.000
1218 4 12.635 0.273 5.235 0.002 0.005 -0.001 -0.000
1248 4 12.320 -3.502 18.715 0.006 0.006 -0.003 0.000
1250 4 14.181 1.976 0.792 0.003 -0.010 0.001 0.000
1285 4 1.445 3.593 6.142 0.002 -0.006 -0.011 -0.000
1289 4 13.088 -2.746 13.760 0.003 -0.000 -0.005 0.000
1295 4 8.721 4.142 4.993 0.006 -0.006 0.004 -0.000
1329 4 7.249 10.321 16.667 -0.004 -0.011 0.001 -0.000
1338 4 8.877 11.008 4.679 -0.002 0.004 0.002 0.000
1610 4 -0.559 5.131 6.695 0.002 0.006 0.014 -0.000
1644 4 7.658 4.775 15.130 -0.011 0.000 -0.004 0.000
1646 4 3.537 -0.591 7.648 0.010 0.005 0.014 0.000
1650 4 -0.813 3.819 2.134 0.002 -0.005 -0.002 0.000
1651 4 -0.501 9.691 7.587 -0.001 -0.007 -0.011 0.000
1655 4 8.592 2.910 7.135 0.003 0.001 0.006 -0.000
1689 4 4.907 0.574 10.544 -0.004 -0.002 0.008 0.000
1690 4 3.765 2.951 4.754 -0.006 0.003 -0.002 -0.000
1728 4 8.094 7.221 1.457 0.006 0.000 0.000 -0.000
1767 4 -0.314 5.597 14.676 -0.004 -0.006 0.009 -0.000
2087 4 3.342 3.087 9.489 0.001 -0.002 0.001 0.000
2088 4 7.046 6.457 12.774 0.007 0.008 0.003 -0.000
2092 4 8.138 9.921 12.162 0.001 0.005 -0.001 0.000
2125 4 3.842 12.875 18.584 -0.003 0.004 -0.002 0.000
2129 4 11.837 -0.109 17.560 0.001 -0.012 0.005 -0.000
2412 4 8.159 8.749 14.831 -0.001 0.007 0.010 -0.000
2452 4 13.651 -2.171 8.435 0.004 0.002 -0.007 0.000
2525 4 -1.109 5.034 17.215 -0.005 -0.001 0.002 0.000
2528 4 4.768 2.339 17.638 -0.015 0.004 -0.002 0.000
2573 4 8.179 0.172 7.396 -0.001 -0.002 0.007 -0.000
481 4 12.058 2.882 6.660 -0.012 -0.011 0.005 0.000
2454 4 9.839 13.062 20.256 -0.002 -0.004 -0.004 -0.000
2455 4 3.171 6.997 8.922 -0.009 -0.001 -0.008 0.000
163 4 4.132 9.206 10.518 -0.008 0.002 -0.011 -0.000
2044 4 6.722 10.681 7.221 -0.006 -0.013 -0.008 -0.000
127 4 9.848 11.621 0.368 0.002 -0.004 -0.001 -0.000
1732 4 7.480 11.383 14.338 -0.000 0.008 -0.000 -0.000
964 4 5.757 -1.106 12.117 -0.003 -0.013 -0.009 0.000
1684 4 8.312 4.226 12.322 -0.002 -0.001 -0.011 0.000
2816 4 5.665 3.699 15.570 0.006 0.009 -0.005 0.000
851 4 8.243 -2.428 14.484 0.001 0.000 -0.009 -0.000
8769 4 5.156 4.053 6.449 0.001 -0.001 0.003 -0.000
2483 4 9.495 6.669 19.411 -0.015 0.001 -0.000 -0.000
2603 4 10.776 7.887 14.335 0.005 -0.006 -0.004 -0.000
1765 4 3.786 -3.748 16.288 -0.007 0.008 0.007 0.000
3247 4 8.389 6.649 10.082 0.004 0.006 0.003 -0.000
1727 4 1.576 8.277 20.129 -0.004 0.006 -0.008 -0.000
841 4 -0.267 6.401 2.232 -0.013 -0.005 -0.006 -0.000
568 4 10.043 5.366 1.348 -0.014 0.006 0.003 -0.000
9968 4 10.114 9.974 9.036 -0.005 0.006 0.001 0.000
444 4 5.227 -1.535 9.243 -0.003 -0.001 -0.004 0.000
1649 4 11.108 3.860 12.983 0.003 0.003 0.000 0.000
1365 4 7.068 11.053 -1.821 0.008 0.001 -0.012 -0.000
1696 4 8.047 1.980 17.622 -0.001 0.002 0.016 -0.000
1217 4 -0.179 3.100 7.991 0.011 0.007 0.001 -0.000
1725 4 9.312 1.900 12.452 -0.011 -0.007 0.002 0.000
566 4 4.891 6.514 11.050 -0.001 -0.000 -0.009 -0.000
9930 4 2.532 11.157 6.348 0.008 -0.004 0.001 0.000
4479 4 -1.143 3.378 13.248 0.004 0.003 -0.004 0.000
9974 4 9.223 8.318 6.532 -0.017 0.001 0.008 -0.000
9565 4 4.766 5.315 20.045 -0.004 0.004 -0.008 -0.000
5758 4 -2.644 13.120 4.197 -0.010 0.002 0.001 -0.000
19736 4 6.379 4.450 10.627 0.011 0.002 0.014 0.000
2204 4 9.646 12.740 12.805 -0.001 0.000 -0.002 0.000
569 4 2.224 8.698 5.514 -0.006 0.012 0.006 -0.000
19682 4 7.484 9.777 9.525 -0.010 0.003 0.003 -0.000
1251 4 4.727 1.134 12.955 0.005 -0.004 -0.009 0.000
7233 4 6.695 0.338 16.501 -0.006 0.006 -0.004 -0.000
55 4 -1.651 1.011 13.994 -0.007 0.001 0.003 -0.000
2643 4 5.609 6.528 14.779 -0.007 0.008 0.002 -0.000
6480 4 1.853 0.056 10.799 -0.004 -0.001 0.001 0.000
1761 4 4.873 7.859 13.071 0.004 0.018 -0.007 0.000
456 4 11.546 4.724 -1.812 0.003 0.007 0.001 -0.000
1281 4 1.016 -3.804 7.712 -0.003 0.004 0.004 0.000
1653 4 5.389 5.513 8.725 -0.008 -0.004 0.001 -0.000
1135 4 10.747 4.840 -4.163 -0.008 -0.009 0.002 0.000
1282 4 4.151 12.309 7.471 -0.002 -0.004 0.002 -0.000
19776 4 11.319 11.348 11.472 0.008 -0.008 0.001 0.000
2124 4 3.390 3.997 15.734 -0.002 -0.001 -0.004 0.000
19408 4 4.466 7.859 4.460 -0.008 0.004 -0.001 0.000
19284 4 2.670 5.912 6.396 0.000 0.009 0.001 0.000
565 4 7.018 10.943 3.618 -0.003 -0.009 -0.006 -0.000
90 4 3.567 0.655 3.057 -0.002 -0.016 -0.016 -0.000
16218 4 12.976 1.995 18.473 0.003 0.006 0.001 -0.000
2521 4 -0.113 7.742 12.400 0.002 -0.005 -0.010 0.000
4598 4 10.248 -2.375 17.586 0.007 0.002 -0.010 -0.000
3700 4 11.285 5.798 11.451 -0.005 0.006 0.001 0.000
9165 4 0.298 10.084 14.598 -0.005 0.010 -0.001 0.000
1322 4 3.837 8.480 15.419 0.003 -0.006 0.005 0.000
2018 4 12.308 1.515 15.604 0.002 -0.002 0.006 0.000
19625 4 8.605 -0.076 3.195 0.010 -0.006 0.005 -0.000
2209 4 6.743 6.219 18.050 -0.004 -0.008 -0.004 -0.000
19298 4 6.619 5.117 1.940 0.002 0.004 -0.010 -0.000
846 4 6.167 3.935 4.141 0.012 -0.009 -0.006 0.000
86 4 0.989 6.556 10.455 -0.001 0.009 -0.009 -0.000
19654 4 11.276 11.874 -2.164 -0.004 0.009 -0.001 0.000
6111 4 8.079 4.394 20.700 -0.003 -0.000 -0.005 -0.000
19763 4 -1.913 -1.815 4.447 0.008 0.001 -0.002 -0.000
863 4 4.963 -1.701 16.861 -0.006 -0.001 -0.009 -0.000
16178 4 1.147 -3.151 14.338 -0.015 -0.015 -0.004 -0.000
614 4 11.575 11.149 4.962 -0.010 0.001 0.007 -0.000
8763 4 -0.772 5.257 11.596 0.008 -0.001 0.000 -0.000
9126 4 5.667 4.298 13.201 -0.006 -0.007 -0.006 0.000
96 4 0.452 4.229 0.003 0.007 0.005 -0.005 0.000
5360 4 0.796 12.441 11.098 0.006 -0.002 0.005 0.000
5439 4 7.221 8.731 5.045 0.005 0.006 0.005 0.000
19490 4 4.138 3.368 1.974 0.001 0.003 -0.002 -0.000
1731 4 -2.167 5.887 4.653 -0.004 -0.009 -0.004 0.000
18603 4 7.292 1.891 5.392 0.002 0.010 -0.002 -0.000
900 4 2.353 2.073 14.195 0.003 0.007 -0.001 0.000
19289 4 -2.188 11.198 0.080 -0.002 -0.006 0.009 0.000
2619 4 13.386 12.177 19.514 -0.006 -0.007 0.011 0.000
2185 4 6.043 -0.662 14.653 0.014 -0.008 0.004 0.000
2524 4 0.257 10.870 17.112 0.001 -0.008 0.011 0.000
1252 4 3.395 6.051 13.313 -0.003 -0.006 0.002 -0.000
802 4 -2.072 -3.694 18.297 -0.013 0.005 0.006 -0.000
19217 4 10.146 1.588 5.145 0.002 -0.002 0.013 -0.000
2563 4 4.611 6.328 17.097 0.017 0.010 -0.006 -0.000
9969 4 9.588 1.888 9.865 -0.002 -0.000 0.007 0.000
491 4 2.004 7.229 3.777 -0.002 0.003 -0.001 -0.000
19730 4 4.866 10.008 5.257 0.001 -0.009 -0.004 -0.000
1409 4 7.548 -0.178 10.079 0.004 -0.005 -0.005 0.000
697 4 12.806 3.887 2.573 0.004 0.002 0.003 0.000
8330 4 12.406 -0.671 -2.338 0.004 -0.000 -0.013 -0.000
23469 4 0.234 9.292 -1.520 -0.004 -0.007 -0.012 0.000
19686 4 2.834 7.455 11.459 0.006 -0.015 0.002 0.000
490 4 4.490 7.172 1.635 0.006 -0.005 -0.002 0.000
213 4 9.769 7.586 -0.155 0.003 0.004 0.005 -0.000
1730 4 13.260 3.603 11.537 -0.003 0.002 -0.011 -0.000
1729 4 4.519 11.568 14.441 -0.014 0.001 -0.002 0.000
898 4 13.570 -1.281 11.484 -0.001 0.001 -0.003 0.000
6315 4 4.775 10.500 19.609 0.004 0.010 0.006 -0.000
4195 4 -3.473 5.376 -1.053 -0.001 -0.005 -0.002 0.000
5634 4 6.950 0.733 12.466 0.008 -0.003 0.009 0.000
19282 4 2.986 0.012 0.791 -0.004 0.002 -0.008 0.000
2416 4 -0.960 7.879 15.216 0.004 0.004 -0.005 0.000
19406 4 1.727 2.163 1.327 0.002 0.004 -0.013 -0.000
616 4 2.248 9.380 -2.973 0.003 -0.005 0.003 0.000
19806 4 13.002 14.729 1.300 -0.010 -0.004 -0.002 -0.000
6476 4 1.999 6.144 15.624 -0.007 0.011 -0.003 0.000
9561 4 6.316 -1.141 2.699 -0.006 0.011 0.001 0.000
87 4 2.966 -3.041 0.647 -0.001 -0.001 0.007 0.000
85 4 0.908 1.369 -0.841 0.004 -0.003 -0.009 -0.000
2699 4 4.452 8.175 20.135 -0.009 -0.008 -0.007 -0.000
455 4 11.007 -1.864 7.365 -0.006 0.006 0.000 -0.000
1734 4 -1.075 -1.165 18.622 -0.006 -0.002 0.004 -0.000
1260 4 4.768 1.360 0.676 0.003 -0.011 0.007 -0.000
1380 4 3.961 5.785 -1.331 -0.012 0.005 0.002 0.000
6913 4 1.072 4.112 17.646 -0.006 -0.001 -0.006 0.000
1386 4 4.646 10.848 16.835 0.006 0.001 0.004 0.000
420 4 14.352 -2.275 4.018 0.003 -0.007 -0.004 -0.000
5315 4 2.421 6.358 18.811 0.011 -0.017 -0.003 -0.000
9933 4 -0.849 7.876 18.371 -0.003 0.006 -0.008 0.000
1363 4 8.470 3.715 2.085 0.000 -0.001 0.001 -0.000
4073 4 3.453 2.699 -1.041 0.003 -0.004 0.005 0.000
4955 4 7.563 2.382 14.136 0.007 -0.007 0.004 0.000
2494 4 1.336 8.074 14.124 -0.005 0.003 -0.004 0.000
5039 4 8.180 7.003 16.441 0.002 0.005 0.003 -0.000
122 4 10.622 8.886 4.362 -0.003 -0.006 -0.011 -0.000
2011 4 11.405 2.254 -1.821 -0.004 -0.001 -0.005 -0.000
3089 4 -2.046 7.305 7.250 -0.002 -0.001 0.001 -0.000
27570 4 -2.723 2.252 3.361 0.011 0.007 0.007 0.000
19336 4 6.999 8.067 7.756 -0.005 -0.002 0.007 -0.000
17854 4 7.078 1.479 -2.940 0.007 -0.002 0.004 0.000
19307 4 10.691 2.443 2.547 0.006 0.004 0.001 -0.000
4640 4 0.179 10.824 2.846 0.012 0.008 -0.005 -0.000
1401 4 -2.536 6.673 12.814 0.004 0.001 0.002 -0.000
44 4 5.939 3.144 -1.339 -0.006 0.003 -0.003 0.000
1010 4 4.347 9.440 7.509 0.008 -0.007 0.007 -0.000
6239 4 2.820 5.074 10.899 -0.004 -0.004 0.001 0.000
6119 4 4.844 7.017 6.506 -0.000 -0.008 0.007 0.000
66 4 12.000 1.003 0.826 0.005 0.001 0.008 -0.000
2485 4 10.386 9.733 16.174 -0.007 -0.005 -0.003 0.000
2099 4 8.038 -2.236 8.138 0.000 0.002 0.000 -0.000
6992 4 2.826 5.169 21.354 0.000 -0.005 0.005 -0.000
4874 4 0.123 1.366 6.338 0.010 -0.003 0.005 0.000
1647 4 -5.486 6.702 16.047 0.007 0.002 -0.007 -0.000
1766 4 2.070 12.074 13.807 0.006 0.005 0.004 0.000
487 4 4.143 4.454 -3.616 -0.002 -0.002 -0.002 0.000
1611 4 -1.150 2.726 15.900 0.002 -0.001 0.005 -0.000
2126 4 -1.347 3.429 4.960 -0.005 -0.003 0.006 -0.000
27962 4 1.157 2.599 3.794 -0.006 0.010 -0.000 -0.000
19804 4 8.984 9.901 1.705 -0.003 0.004 -0.003 -0.000
1290 4 -0.270 8.867 3.334 -0.007 -0.003 0.007 0.000
7474 4 -1.186 11.303 9.966 0.005 0.001 -0.003 -0.000
4232 4 2.851 8.922 -0.548 -0.009 0.002 -0.002 0.000
447 4 2.177 4.933 1.776 -0.006 -0.001 0.004 0.000
404 4 0.088 11.023 0.098 -0.006 -0.006 0.010 -0.000
460 4 9.475 1.043 1.524 -0.003 -0.006 -0.004 -0.000
23632 4 -0.974 8.145 9.858 -0.002 -0.001 -0.001 -0.000
5473 4 0.389 12.738 4.375 -0.005 0.011 0.005 0.000
575 4 6.821 6.174 5.483 -0.009 -0.008 0.001 -0.000
19689 4 -0.685 1.176 3.745 0.004 -0.011 0.002 -0.000
4031 4 14.204 -0.257 1.464 -0.010 0.007 0.012 -0.000
18858 4 3.695 5.374 3.997 -0.001 0.002 0.001 0.000
3082 4 11.384 10.597 18.125 0.015 -0.007 -0.006 0.000
1369 4 0.961 9.846 11.691 0.001 -0.006 0.012 0.000
19688 4 -3.655 2.188 0.943 0.003 -0.008 0.005 0.000
4157 4 0.506 -0.920 4.985 0.004 -0.006 0.002 0.000
458 4 12.689 5.773 0.454 0.002 -0.005 0.012 -0.000
2415 4 8.427 -1.242 12.248 0.001 -0.001 0.007 0.000
281 4 1.428 8.864 1.517 0.003 0.003 -0.017 0.000
3307 4 2.277 1.707 19.340 0.007 -0.002 -0.001 0.000
18940 4 8.735 6.781 -3.048 -0.004 -0.006 -0.000 0.000
10379 4 5.932 -3.266 6.653 0.009 0.014 -0.004 0.000
11929 4 0.792 0.529 14.850 -0.013 -0.016 0.000 -0.000
8644 4 7.059 2.433 10.757 -0.012 0.000 0.007 -0.000
901 4 7.010 8.890 -0.205 -0.010 0.001 -0.009 0.000
526 4 0.650 12.752 6.839 0.006 0.000 0.002 -0.000
2042 4 3.235 -2.071 11.471 -0.008 -0.006 0.007 0.000
5232 4 -2.684 10.834 8.143 0.002 0.001 0.012 -0.000
18442 4 -4.109 2.714 6.398 0.001 -0.005 0.002 0.000
405 4 -0.939 12.263 13.062 0.005 -0.003 -0.001 -0.000
206 4 13.226 6.533 10.079 -0.007 -0.003 0.010 0.000
1412 4 13.402 8.170 2.987 0.000 0.002 0.003 -0.000
3048 4 -3.118 12.901 12.717 0.006 -0.006 0.011 -0.000
504 4 11.547 -1.128 19.864 0.017 0.003 -0.001 0.000
129 4 -0.115 7.357 5.448 0.013 -0.007 0.007 -0.000
3029 4 10.874 8.053 18.076 -0.002 0.001 0.003 0.000
2650 4 1.143 13.458 18.138 -0.003 0.002 0.001 -0.000
3410 4 6.441 6.252 20.732 0.002 -0.003 0.007 -0.000
9164 4 4.503 12.047 2.235 0.008 -0.007 0.007 0.000
1053 4 2.158 13.436 8.463 0.010 0.003 0.002 0.000
4995 4 2.109 1.723 7.751 0.004 -0.011 0.009 0.000
5036 4 8.910 12.959 -1.344 0.002 -0.003 -0.002 -0.000
521 4 -1.299 13.094 1.383 -0.003 0.007 -0.000 0.000
10374 4 -0.274 -1.125 13.226 0.006 -0.005 0.004 -0.000
3405 4 -4.056 10.145 15.574 -0.010 -0.003 -0.001 -0.000
2085 4 1.636 5.131 8.642 -0.006 0.000 0.001 0.000
27886 4 1.914 -2.482 -1.541 -0.009 -0.014 -0.003 0.000
4517 4 5.047 1.402 6.287 0.011 -0.013 0.002 -0.000
5393 4 5.782 6.814 -3.886 -0.011 -0.010 0.000 -0.000
815 4 10.600 -3.637 14.265 0.003 -0.012 -0.001 0.000
2061 4 14.301 1.431 6.789 0.001 0.002 -0.004 -0.000
8761 4 1.387 -3.219 3.684 -0.000 -0.003 -0.008 0.000
19722 4 -2.728 5.453 1.878 0.008 0.005 -0.005 0.000
9542 4 2.289 -2.560 9.400 0.007 -0.003 0.002 -0.000
3 4 1.156 3.885 19.957 0.009 -0.003 -0.011 -0.000
9124 4 -0.855 5.406 9.256 -0.008 -0.004 0.010 -0.000
282 4 3.482 7.198 -3.065 0.004 0.007 0.005 0.000
1293 4 -2.654 7.295 16.853 0.004 -0.007 -0.002 -0.000
8681 4 -1.588 2.681 -0.339 -0.009 0.001 0.005 0.000
19405 4 2.437 10.053 3.650 0.019 0.001 0.011 0.000
6559 4 0.683 8.332 16.590 -0.003 0.008 0.002 -0.000
8374 4 0.458 3.198 -2.643 -0.013 0.009 0.008 -0.000
2243 4 4.113 2.965 20.991 -0.006 -0.007 0.004 0.000
18973 4 8.912 11.515 -3.292 0.004 -0.011 -0.015 -0.000
1695 4 6.728 7.833 10.887 0.007 0.000 -0.000 -0.000
18978 4 7.934 2.292 -0.160 -0.004 -0.001 -0.007 -0.000
1243 4 0.865 3.545 15.212 -0.010 0.003 -0.007 0.000
7159 4 12.660 6.074 13.044 -0.000 -0.006 -0.005 -0.000
811 4 5.949 -0.841 7.223 -0.010 -0.005 -0.003 -0.000
10775 4 10.806 -0.152 10.295 -0.000 0.000 0.002 0.000
12393 4 1.000 3.049 10.261 0.014 0.002 0.001 0.000
11098 4 4.379 0.669 15.782 -0.002 -0.015 -0.007 0.000
6560 4 -4.470 10.293 12.981 0.001 -0.002 -0.001 0.000
2164 4 1.638 8.669 7.778 -0.000 -0.003 0.003 -0.000
2052 4 13.951 0.953 -1.206 0.003 -0.009 -0.008 0.000
1012 4 10.752 8.640 11.638 -0.003 -0.003 0.002 0.000
1096 4 6.750 13.256 -2.743 0.002 -0.000 -0.006 -0.000
9097 4 2.266 -0.428 13.699 -0.006 -0.009 0.010 0.000
1340 4 10.783 4.870 7.923 -0.008 -0.004 0.002 0.000
505 4 14.633 7.637 12.263 -0.003 -0.010 0.006 0.000
6550 4 6.341 2.065 8.322 0.001 -0.003 -0.002 -0.000
27816 4 3.508 -0.460 -1.531 -0.005 0.005 0.006 0.000
1830 4 14.511 0.548 16.492 -0.000 0.009 0.001 -0.000
949 4 8.297 6.013 7.537 -0.003 0.006 0.001 0.000
4520 4 0.050 -1.115 -0.080 0.002 0.004 -0.007 0.000
2848 4 3.424 4.085 18.493 0.006 0.001 0.010 0.000
6673 4 -2.110 9.731 17.337 0.000 0.004 0.006 0.000
91 4 14.013 12.648 2.265 0.003 -0.003 -0.001 -0.000
2022 4 10.468 13.648 4.875 -0.001 0.012 0.004 0.000
563 4 5.560 13.677 3.333 -0.008 -0.003 -0.004 -0.000
2267 4 9.141 4.647 18.240 -0.007 0.004 0.005 -0.000
2422 4 3.588 -0.124 18.291 0.007 0.008 -0.002 -0.000
2007 4 1.430 4.123 12.944 -0.005 0.001 -0.012 0.000
6589 4 -3.960 7.451 18.982 -0.002 -0.005 0.007 -0.000
9568 4 0.077 -1.558 10.044 0.006 -0.009 -0.008 -0.000
247 4 12.902 8.464 5.468 0.003 -0.001 -0.005 0.000
2498 4 10.827 7.730 8.720 -0.010 0.002 0.009 0.000
9182 4 5.139 -4.121 18.090 -0.001 0.004 0.006 -0.000
4678 4 -0.756 14.610 7.983 0.004 -0.001 0.010 0.000
4557 4 0.619 10.305 5.439 0.001 -0.007 -0.000 -0.000
1291 4 9.186 11.712 15.723 0.007 0.018 0.000 0.000
571 4 8.049 -1.068 5.424 0.010 0.015 -0.007 -0.000
5316 4 2.181 11.176 1.390 0.010 -0.009 -0.009 0.000
2459 4 2.343 -0.942 16.333 0.002 0.006 0.005 -0.000
648 4 6.400 8.464 3.019 -0.004 -0.007 0.004 0.000
7395 4 3.361 8.419 18.021 0.005 0.002 0.000 -0.000
2093 4 3.932 -1.674 14.575 -0.001 -0.004 -0.002 -0.000
13594 4 -4.931 -0.381 17.860 -0.013 -0.009 -0.006 -0.000
923 4 -2.112 11.832 15.854 -0.000 -0.007 0.009 0.000
5631 4 0.946 -0.724 7.662 0.011 0.002 -0.003 -0.000
7717 4 6.980 -2.282 18.488 -0.001 -0.011 -0.004 -0.000
1810 4 3.281 9.780 13.422 0.007 0.005 -0.000 0.000
9535 4 0.771 5.024 4.340 -0.001 -0.000 -0.010 0.000
2101 4 9.801 3.347 15.660 -0.004 0.006 0.002 0.000
19764 4 -2.224 10.469 2.983 -0.002 -0.003 0.002 0.000
19655 4 -1.197 0.306 -1.605 -0.003 0.001 0.013 -0.000
2860 4 8.865 5.934 3.296 0.005 0.001 0.010 -0.000
3260 4 10.815 2.631 17.692 0.015 0.006 0.002 -0.000
2449 4 -2.877 -2.109 16.741 -0.001 -0.001 0.003 -0.000
1455 4 11.399 9.510 7.216 0.001 0.008 0.004 0.000
4461 4 -4.088 9.397 7.007 0.006 0.006 0.014 0.000
1407 4 13.566 10.645 3.892 -0.004 0.003 -0.010 -0.000
1286 4 13.589 1.581 3.127 0.001 -0.002 0.010 -0.000
4040 4 -0.685 -2.002 2.184 0.005 -0.005 0.005 0.000
1693 4 12.789 9.145 10.200 -0.003 0.009 -0.006 0.000
496 4 4.891 8.143 -1.527 0.001 0.003 0.002 0.000
564 4 -2.260 0.800 5.670 -0.004 0.007 0.001 -0.000
406 4 11.957 10.002 -1.026 0.002 -0.006 -0.004 -0.000
23707 4 -1.267 6.497 -0.250 -0.007 -0.008 -0.007 -0.000
1220 4 8.577 -0.406 14.701 0.009 0.002 0.004 0.000
1827 4 13.224 5.866 7.139 -0.003 -0.003 0.009 0.000
2178 4 12.639 7.938 16.248 -0.012 0.012 0.007 0.000
19699 4 8.972 3.551 -2.755 -0.004 -0.007 0.001 -0.000
2215 4 11.287 8.820 1.565 -0.002 0.004 -0.006 -0.000
27574 4 2.787 -1.589 -3.677 -0.010 0.000 0.004 0.000
6552 4 -2.772 13.221 8.384 -0.003 0.008 -0.009 -0.000
10684 4 -0.151 1.026 8.874 0.010 -0.001 0.007 -0.000
1337 4 6.005 -3.444 15.321 0.010 -0.002 0.004 -0.000
13997 4 -2.737 5.318 15.400 0.001 -0.008 -0.002 0.000
3062 4 13.844 -1.652 18.120 0.010 0.010 -0.006 0.000
1604 4 4.477 -1.928 19.333 0.001 -0.010 -0.002 -0.000
18962 4 4.760 9.727 1.384 0.001 -0.003 -0.006 0.000
449 4 -4.141 10.311 18.991 -0.005 0.010 0.002 -0.000
3892 4 5.373 12.855 20.081 -0.010 -0.006 -0.003 -0.000
59 4 9.459 9.357 -1.712 -0.008 0.003 0.004 -0.000
1403 4 2.895 12.653 16.287 0.004 -0.006 0.010 -0.000
3333 4 11.303 8.138 20.726 -0.005 0.000 0.001 0.000
2133 4 11.968 1.390 11.745 0.001 0.000 -0.006 0.000
202 4 -0.110 14.495 -1.677 0.007 -0.003 -0.010 -0.000
173 4 8.903 4.363 9.412 -0.004 -0.003 0.002 -0.000
528 4 -2.460 -1.310 14.418 0.007 -0.010 -0.003 -0.000
19309 4 3.932 11.688 -3.084 0.003 0.005 0.009 0.000
13199 4 5.008 -1.545 0.685 0.004 0.007 -0.008 0.000
5800 4 11.625 6.674 3.462 -0.008 0.009 0.010 -0.000
9166 4 0.564 -0.060 -2.955 0.010 -0.004 -0.012 -0.000
10376 4 3.475 -3.866 13.655 -0.000 -0.007 -0.006 0.000
192 4 -3.689 12.196 1.954 0.005 -0.002 0.011 -0.000
5639 4 -2.835 -0.320 2.571 0.002 -0.009 -0.001 0.000
844 4 6.189 1.516 2.765 -0.011 0.001 -0.012 -0.000
4951 4 -1.549 12.088 6.169 -0.001 -0.007 0.004 0.000
2579 4 9.858 14.153 17.630 0.005 0.010 0.001 0.000
659 4 10.893 5.923 17.110 -0.001 -0.011 -0.003 -0.000
9530 4 6.660 -3.614 12.988 0.003 0.009 -0.000 0.000
3372 4 9.776 -2.580 19.689 0.002 0.001 -0.005 0.000
9122 4 2.507 2.238 17.054 -0.013 -0.007 -0.003 0.000
1004 4 3.090 13.878 -4.076 -0.002 -0.003 0.007 0.000
4074 4 1.532 0.170 2.561 0.005 -0.005 0.007 -0.000
23831 4 5.696 9.655 14.610 -0.003 -0.000 0.003 -0.000
1602 4 3.946 -3.986 20.422 0.008 -0.004 0.004 0.000
19647 4 10.240 2.905 -0.115 0.009 0.004 0.009 -0.000
2420 4 7.111 -2.992 10.376 -0.002 0.002 -0.007 -0.000
9082 4 2.605 -1.962 5.494 0.003 -0.008 -0.005 0.000
140 4 2.432 10.947 9.043 -0.002 0.003 -0.000 -0.000
2577 4 10.636 10.674 20.328 0.005 0.000 -0.005 0.000
2445 4 -1.265 2.990 18.989 -0.002 -0.002 -0.001 0.000
806 4 -3.733 5.019 17.666 0.002 0.006 -0.005 0.000
8606 4 7.054 -0.064 0.700 0.006 0.004 0.009 0.000
1723 4 8.358 2.333 19.914 0.006 0.007 -0.002 0.000
19771 4 0.714 1.398 12.426 0.002 -0.003 -0.003 -0.000
8361 4 -1.990 -3.603 -4.196 0.001 -0.004 -0.001 -0.000
209 4 0.133 10.211 -4.005 0.001 -0.002 -0.013 0.000
6955 4 -3.622 0.210 20.013 -0.008 0.006 0.001 0.000
1784 4 7.549 13.062 8.320 -0.012 -0.009 -0.004 0.000
11565 4 -0.098 -1.489 16.343 -0.005 0.003 -0.003 -0.000
13587 4 -4.427 4.406 3.744 -0.006 0.011 -0.003 0.000
8390 4 11.133 -1.163 12.727 -0.003 0.003 -0.004 0.000
23839 4 1.348 12.599 -3.165 0.007 -0.005 0.006 -0.000
9344 4 6.136 -0.702 -1.795 -0.007 -0.001 0.009 0.000
9924 4 -0.922 0.836 1.246 0.007 0.002 0.003 0.000
6032 4 -4.823 8.428 16.924 0.000 0.006 -0.004 0.000
641 4 -3.121 7.174 -2.872 0.002 0.005 -0.004 -0.000
2175 4 9.540 11.518 7.079 -0.008 0.010 0.011 -0.000
3365 4 5.443 12.276 5.295 0.006 0.002 0.002 0.000
1292 4 0.085 0.812 20.010 0.006 0.003 0.004 -0.000
25940 4 6.914 4.785 -2.916 -0.001 -0.004 0.000 0.000
27579 4 9.451 0.645 -0.894 -0.007 -0.005 -0.004 -0.000
1367 4 7.686 13.606 18.638 -0.007 0.001 0.008 0.000
2168 4 5.927 0.398 18.832 -0.003 0.000 0.000 -0.000
1002 4 -1.052 8.635 1.004 0.011 0.002 0.004 -0.000
610 4 8.985 9.316 18.217 -0.005 -0.010 -0.007 0.000
2581 4 12.107 12.400 13.833 0.008 -0.009 -0.001 0.000
5839 4 -4.123 12.158 17.451 0.004 0.003 -0.003 0.000
1605 4 -1.255 -1.086 6.664 0.003 -0.004 0.008 -0.000
13152 4 -1.565 0.357 11.386 -0.009 -0.003 -0.007 0.000
2981 4 7.442 11.060 19.934 -0.002 -0.002 -0.005 0.000
216 4 11.080 6.557 5.972 -0.007 -0.005 -0.002 0.000
19773 4 1.069 7.011 -0.234 0.001 0.011 0.010 0.000
9529 4 -3.325 -3.067 9.055 0.004 -0.003 0.008 -0.000
19328 4 -3.871 9.701 1.269 -0.002 -0.009 -0.005 -0.000
2814 4 1.339 -1.005 18.365 -0.002 -0.005 0.001 -0.000
15 4 11.605 -2.352 10.356 -0.001 -0.006 -0.008 0.000
1414 4 -0.032 13.304 15.490 0.004 -0.003 -0.006 0.000
485 4 7.708 12.313 10.498 0.013 -0.005 0.005 -0.000
6225 4 -3.755 8.308 11.334 -0.003 -0.001 -0.012 -0.000
8368 4 2.785 -3.036 18.390 0.001 0.007 0.001 -0.000
41 4 0.413 1.382 17.589 0.005 -0.004 -0.008 -0.000
2010 4 10.128 13.813 8.553 -0.009 0.001 0.003 0.000
1736 4 13.608 10.444 7.097 -0.005 0.002 0.004 -0.000
2881 4 -4.026 12.289 20.669 0.005 0.003 0.005 -0.000
8737 4 4.529 -2.839 -1.569 -0.006 -0.002 0.009 0.000
3264 4 13.089 4.749 17.822 0.005 0.010 0.000 -0.000
146 4 11.552 4.489 4.632 0.009 0.008 -0.006 0.000
19423 4 11.901 12.718 6.768 -0.002 0.003 -0.004 0.000
445 4 2.138 1.176 5.231 -0.004 0.001 0.002 -0.000
31999 4 -2.425 -2.066 -0.023 -0.004 0.009 -0.006 0.000
1739 4 5.717 13.041 16.607 -0.002 -0.005 0.009 -0.000
8362 4 3.473 -1.881 2.965 -0.003 0.005 0.005 0.000
1803 4 9.880 10.081 13.662 -0.002 0.005 -0.001 -0.000
2934 4 11.752 5.618 19.521 0.002 0.006 -0.009 -0.000
2886 4 11.472 -0.806 15.036 0.003 -0.012 -0.005 0.000
3370 4 0.481 11.525 19.373 0.011 -0.007 0.001 0.000
2569 4 11.711 13.806 11.324 0.000 -0.012 0.006 0.000
18860 4 -2.486 10.373 -2.549 0.004 -0.009 -0.006 -0.000
3332 4 13.177 -2.940 -2.538 -0.001 0.015 0.002 0.000
424 4 13.502 8.173 8.053 -0.010 0.001 0.004 0.000
2053 4 8.667 -0.324 17.766 0.003 0.002 -0.006 0.000
4552 4 -1.693 9.539 5.569 -0.006 -0.004 0.003 -0.000
3017 4 9.174 11.653 17.881 0.002 0.011 0.001 -0.000
860 4 9.104 -2.672 2.219 -0.011 0.002 0.004 -0.000
19281 4 6.865 11.074 1.332 -0.003 0.000 -0.010 0.000
10340 4 11.479 -0.505 2.689 0.005 -0.007 -0.009 -0.000
3369 4 -4.341 2.432 19.323 0.008 0.012 -0.004 0.000
5350 4 -2.049 0.297 16.495 -0.002 -0.019 -0.000 0.000
175 4 5.415 11.335 9.637 -0.008 -0.007 -0.001 0.000
9921 4 -0.926 -3.396 8.455 0.007 0.011 -0.001 -0.000
3085 4 8.541 -0.162 20.036 -0.004 -0.001 0.003 -0.000
13546 4 -5.620 -1.319 -1.080 -0.004 -0.002 -0.005 0.000
3421 4 12.352 9.415 13.777 -0.005 0.002 0.005 0.000
16801 4 -4.952 -3.992 17.334 0.006 -0.003 -0.003 -0.000
4477 4 -4.632 -0.901 4.254 -0.006 -0.004 -0.007 -0.000
23638 4 -3.363 -2.825 6.306 -0.001 0.001 -0.001 -0.000
12320 4 -4.138 -3.610 -0.199 0.003 0.004 0.006 -0.000
294 4 3.733 13.894 13.492 -0.002 -0.001 0.004 -0.000
95 4 13.527 0.159 9.774 0.005 -0.007 -0.004 -0.000
8687 4 2.026 -4.149 -3.155 -0.004 -0.014 0.015 -0.000
612 4 -1.863 11.727 -4.818 -0.001 -0.012 -0.003 0.000
4033 4 -3.510 1.846 -2.029 0.001 -0.002 -0.008 0.000
2532 4 11.557 3.685 9.779 0.003 -0.006 0.004 0.000
5399 4 6.507 13.487 13.853 0.011 -0.011 0.006 -0.000
1404 4 -4.956 12.267 15.058 -0.004 -0.002 0.004 0.000
19210 4 8.672 -0.921 -2.079 0.004 0.014 0.004 -0.000
19711 4 10.845 0.263 7.867 -0.011 -0.001 0.004 -0.000
8373 4 9.795 -1.864 0.348 -0.004 0.004 0.009 -0.000
961 4 -2.669 7.518 2.837 0.001 0.004 -0.000 -0.000
9972 4 -2.615 0.168 8.926 0.010 0.000 -0.010 -0.000
16203 4 -2.032 11.723 18.790 0.006 0.007 -0.005 -0.000
4556 4 -4.327 0.164 15.262 0.009 0.005 -0.007 -0.000
19413 4 4.738 -0.811 4.982 -0.005 0.003 0.010 0.000
19734 4 13.333 3.365 -0.374 -0.004 -0.007 0.005 -0.000
1005 4 9.181 14.171 15.063 -0.004 0.009 -0.006 -0.000
3801 4 6.333 -3.249 20.691 0.015 0.013 0.002 0.000
4476 4 -3.852 2.648 17.114 0.001 -0.008 0.002 -0.000
2617 4 13.114 9.894 19.895 -0.010 0.016 0.010 0.000
562 4 6.483 -2.937 -3.326 0.004 -0.003 -0.001 0.000
19724 4 -0.540 6.111 -3.212 -0.000 0.005 -0.003 0.000
2121 4 6.983 -3.289 1.722 0.000 -0.002 -0.002 0.000
18108 4 13.858 0.845 -3.543 0.006 0.001 -0.004 -0.000
19538 4 -0.485 13.498 -4.181 -0.012 0.001 -0.001 0.000
56 4 10.968 -2.587 -1.348 0.001 -0.000 -0.014 -0.000
928 4 6.006 13.826 6.760 0.012 -0.002 0.012 -0.000
2086 4 7.641 14.977 3.735 0.006 0.002 0.003 0.000
8766 4 -3.964 -0.222 -3.347 0.003 -0.004 0.002 -0.000
10334 4 -3.463 2.828 14.612 0.010 0.001 -0.008 0.000
7354 4 -2.923 14.076 19.756 -0.004 0.003 0.004 0.000
1659 4 13.803 10.572 12.152 0.003 -0.008 -0.008 -0.000
2977 4 12.702 1.011 21.126 0.002 -0.002 0.005 0.000
19638 4 12.911 5.319 -4.009 0.003 -0.014 -0.004 -0.000
3660 4 12.146 13.299 21.522 0.009 0.002 0.002 0.000
19608 4 4.674 -4.160 9.722 0.013 -0.002 -0.001 0.000
4875 4 -4.088 5.257 6.589 0.000 -0.002 -0.004 -0.000
6067 4 -4.129 7.113 9.106 -0.008 -0.006 -0.003 -0.000
19212 4 -1.838 4.202 -2.711 0.004 0.001 -0.003 -0.000
170 4 4.036 11.044 -0.616 0.014 0.005 -0.008 -0.000
19293 4 -3.626 -2.496 -2.239 0.007 0.007 -0.005 0.000
19818 4 2.831 12.645 4.016 -0.008 0.006 -0.007 -0.000
2096 4 13.972 -3.904 11.363 0.002 -0.003 -0.001 0.000
537 4 11.610 7.779 -2.758 0.006 0.002 0.004 -0.000
9487 4 1.708 12.961 -0.819 -0.002 0.012 -0.010 0.000
178 4 9.990 9.171 -4.113 -0.012 -0.013 0.008 -0.000
11506 4 10.867 1.099 13.939 0.003 0.001 0.008 -0.000
18861 4 -2.805 8.507 -0.518 -0.003 -0.007 -0.010 0.000
9884 4 6.230 -2.622 4.216 0.007 0.003 -0.001 0.000
13116 4 -2.521 -1.824 11.550 0.003 0.007 0.000 0.000
5431 4 3.984 14.270 5.711 -0.003 0.007 0.007 0.000
12396 4 2.758 13.872 11.363 0.008 0.001 0.005 -0.000
925 4 -1.565 2.648 10.662 0.005 -0.010 0.001 0.000
168 4 -1.130 14.516 5.635 -0.005 0.002 -0.000 -0.000
8379 4 -4.175 -3.870 11.212 0.008 0.006 -0.007 0.000
19618 4 12.751 10.393 -3.718 -0.002 -0.004 -0.007 -0.000
1608 4 -3.574 5.310 10.788 0.003 -0.003 0.006 -0.000
1777 4 12.228 4.232 15.054 -0.002 -0.009 0.006 -0.000
8331 4 7.067 -2.598 -0.573 0.003 0.013 -0.009 0.000
6951 4 -2.219 13.886 17.432 0.009 -0.006 0.001 0.000
848 4 -3.279 3.179 12.252 0.008 -0.009 -0.002 0.000
11490 4 2.063 -0.725 21.770 -0.005 -0.005 0.000 -0.000
984 4 14.589 15.000 -0.573 0.007 0.006 -0.004 -0.000
2970 4 12.025 11.508 9.168 -0.013 -0.004 0.005 0.000
4547 4 -3.821 8.128 14.419 -0.003 0.005 0.003 0.000
19445 4 -4.012 7.724 5.115 -0.007 -0.002 0.003 0.000
655 4 8.749 12.450 2.757 0.005 0.002 -0.003 0.000
9967 4 1.015 -3.440 11.879 -0.007 -0.000 -0.003 -0.000
1851 4 13.553 7.317 21.623 -0.001 0.002 0.013 0.000
5677 4 -3.938 14.374 10.558 -0.005 -0.012 0.001 -0.000
3143 4 10.820 3.932 21.545 -0.014 0.018 -0.000 0.000
10762 4 0.664 -2.758 19.818 -0.000 0.006 -0.001 -0.000
8733 4 10.559 -1.138 5.027 0.001 -0.003 -0.005 -0.000
3521 4 0.036 6.189 20.876 0.004 -0.000 0.001 0.000
8348 4 10.907 -0.923 -4.508 0.008 -0.011 0.009 -0.000
1091 4 10.567 11.443 -4.784 -0.002 0.003 0.001 -0.000
2529 4 13.613 2.290 13.766 0.004 -0.000 0.000 -0.000
5958 4 -1.497 13.494 10.504 0.009 -0.001 -0.001 -0.000
27818 4 11.857 -3.497 3.134 -0.009 0.005 0.008 -0.000
18891 4 1.947 5.333 -2.729 0.007 -0.011 -0.002 -0.000
469 4 11.983 11.303 1.193 0.001 -0.000 0.006 -0.000
7028 4 -4.050 10.668 4.869 0.005 -0.010 -0.005 -0.000
19892 4 1.335 13.493 1.951 0.010 -0.001 0.001 -0.000
8326 4 -4.141 1.101 12.382 -0.003 -0.013 -0.009 0.000
2576 4 1.185 10.338 21.582 0.002 0.013 0.010 0.000
19645 4 -1.143 -2.401 -1.926 -0.007 0.008 -0.004 0.000
4597 4 -4.463 13.110 6.162 0.004 0.004 0.005 0.000
12795 4 4.063 -4.254 4.957 0.001 -0.007 0.007 0.000
6993 4 -1.830 14.143 14.369 -0.000 0.004 0.005 0.000
1775 4 13.926 14.644 17.204 0.011 -0.001 0.009 0.000
1705 4 13.743 8.626 -1.861 -0.007 0.006 0.005 -0.000
2025 4 14.600 -3.611 19.545 -0.009 0.014 -0.007 -0.000
1046 4 1.575 14.719 4.025 0.002 0.001 -0.002 -0.000
1615 4 9.323 -4.147 0.146 -0.002 0.014 0.001 -0.000
816 4 12.909 -1.542 0.012 0.001 -0.006 0.006 -0.000
8366 4 0.607 -3.967 1.244 -0.007 -0.001 0.005 0.000
11488 4 -4.056 -2.524 19.766 -0.002 0.008 -0.001 -0.000
1448 4 -4.405 12.943 -0.648 0.004 0.002 -0.001 -0.000
527 4 4.680 1.963 -3.227 0.004 -0.007 0.002 -0.000
1057 4 6.279 13.178 -0.520 -0.001 -0.001 -0.010 0.000
27937 4 3.531 -2.894 7.341 -0.005 0.005 -0.007 0.000
203 4 4.854 12.758 11.824 -0.009 -0.013 0.006 -0.000
2 4 -3.425 -3.047 2.375 0.005 -0.003 -0.007 -0.000
13597 4 12.781 -2.539 5.812 0.000 -0.003 -0.009 -0.000
1413 4 13.959 14.035 10.918 0.003 -0.007 -0.009 -0.000
19785 4 13.651 3.124 -3.011 0.000 -0.002 -0.004 0.000
1051 4 3.899 13.855 -0.161 0.003 0.010 0.002 -0.000
852 4 -4.347 6.895 1.118 -0.001 0.005 0.006 0.000
22510 4 0.457 -2.141 -4.656 -0.004 0.000 0.001 -0.000
31200 4 -0.995 1.407 -4.177 0.019 0.007 -0.004 -0.000
19648 4 2.509 1.558 -3.478 0.001 -0.005 -0.007 -0.000
2946 4 13.426 -0.266 13.804 -0.006 -0.006 0.013 -0.000
1801 4 5.235 14.150 9.606 0.001 -0.003 0.000 0.000
10296 4 1.252 -4.221 16.495 -0.001 0.003 0.008 -0.000
4957 4 4.276 14.863 15.879 -0.006 -0.000 -0.004 0.000
3525 4 0.823 14.004 12.996 0.002 0.002 0.008 -0.000
13200 4 -0.318 -3.353 5.934 -0.017 0.009 0.004 -0.000
1044 4 -4.737 5.720 -3.528 -0.005 -0.002 -0.002 0.000
2976 4 13.426 10.055 15.953 -0.004 -0.004 -0.011 -0.000
1422 4 13.446 14.445 14.474 0.003 -0.006 -0.003 0.000
3927 4 12.345 12.639 16.732 0.010 -0.000 0.001 0.000
10738 4 -4.405 -3.347 14.576 -0.001 0.010 0.013 -0.000
7718 4 -0.851 9.476 20.039 0.006 0.005 0.010 -0.000