ITEM: TIMESTEP
100000
ITEM: NUMBER OF ATOMS
37374
ITEM: BOX BOUNDS pp pp pp
0.000000 102.779942
0.000000 118.660062
0.000000 130.735200
ITEM: ATOMS id type x y z vx vy vz q
2 3 3.194 2.308 19.117 0.000 0.000 0.000 -1.045
4 3 3.041 2.275 28.728 0.002 -0.005 -0.006 -1.104
6 3 2.831 1.892 37.450 0.003 0.007 -0.005 -1.194
9 3 1.348 1.978 21.943 0.006 0.003 -0.002 -1.016
13 3 1.872 0.525 39.625 -0.008 -0.012 -0.005 -1.153
18 3 5.821 2.122 25.354 -0.002 -0.013 0.006 -1.114
20 3 4.966 1.987 35.269 -0.001 0.010 -0.006 -1.123
24 3 3.248 1.542 23.709 0.004 0.002 0.008 -1.014
30 3 3.079 1.472 42.362 -0.007 -0.006 -0.003 -1.157
36 3 2.862 1.928 32.899 0.009 0.005 0.009 -1.312
37 3 1.881 0.228 19.742 0.000 0.000 0.000 -1.148
38 3 5.513 1.819 19.848 0.000 0.000 0.000 -0.943
40 3 5.082 2.145 30.453 -0.011 -0.001 0.014 -1.187
46 2 2.769 2.076 26.158 0.001 0.001 0.004 1.720
48 1 2.886 2.102 35.267 -0.005 -0.004 0.004 2.180
52 1 5.328 1.923 23.142 -0.003 0.001 -0.000 2.234
54 1 4.761 2.311 32.659 -0.001 -0.000 0.004 2.287
56 1 5.372 1.726 41.341 -0.004 0.002 -0.008 2.159
59 1 1.108 2.215 19.775 0.000 0.000 0.000 2.177
60 1 4.018 0.309 19.738 0.000 0.000 0.000 2.327
61 1 0.972 2.109 29.477 0.000 -0.003 0.007 2.185
63 1 0.900 1.628 38.023 0.007 0.002 -0.006 2.148
67 3 0.086 4.021 19.084 0.000 0.000 0.000 -1.092
68 3 3.421 5.669 19.058 0.000 0.000 0.000 -1.081
70 3 3.432 5.720 28.177 0.006 0.001 0.010 -1.186
72 3 4.433 7.079 36.725 0.002 -0.003 0.003 -1.064
76 3 4.597 2.575 21.424 -0.004 -0.008 0.001 -0.919
77 3 0.912 5.601 31.808 -0.000 0.005 0.019 -1.293
78 3 3.826 4.035 31.913 0.007 0.009 -0.016 -1.302
80 3 4.447 3.786 41.413 -0.005 0.008 -0.006 -1.029
83 3 1.887 4.414 26.221 0.016 -0.006 -0.005 -1.161
84 3 4.026 4.267 23.248 -0.015 -0.000 -0.003 -1.090
85 3 2.582 4.009 34.322 0.013 -0.000 0.012 -1.312
86 3 2.227 7.419 35.197 0.012 -0.006 0.007 -1.194
90 3 3.405 6.216 23.793 -0.000 -0.006 0.006 -1.178
92 3 5.545 3.606 28.290 0.003 0.001 0.000 -1.185
94 3 3.955 4.402 36.587 0.011 -0.005 0.000 -1.028
96 3 3.110 6.228 42.838 0.004 -0.007 -0.005 -1.256
102 3 3.781 6.580 33.305 -0.003 -0.004 -0.004 -1.150
103 3 1.960 4.014 20.727 0.000 0.000 0.000 -1.115
104 3 5.058 5.763 20.991 0.000 0.000 0.000 -1.195
105 3 1.904 4.001 29.811 0.005 0.009 0.006 -1.166
106 3 5.708 5.014 30.225 0.015 0.005 -0.017 -1.157
107 3 2.624 4.744 39.287 -0.001 -0.012 0.009 -1.094
108 3 6.298 3.614 37.546 0.006 0.001 -0.003 -1.138
112 1 3.369 5.907 26.146 0.005 -0.002 -0.000 2.201
114 1 3.337 5.664 35.152 -0.000 0.007 0.001 2.383
117 1 2.072 3.864 22.860 -0.001 0.003 0.003 2.144
118 1 5.246 5.644 23.086 -0.002 -0.003 0.005 2.451
119 1 1.902 3.892 32.383 -0.001 -0.005 0.002 2.237
120 1 5.549 5.615 32.395 0.000 -0.000 0.003 2.224
121 2 2.163 3.593 41.523 0.003 0.004 -0.001 1.584
122 1 5.214 5.738 41.838 0.003 -0.003 -0.003 2.130
125 1 1.243 5.880 19.517 0.000 0.000 0.000 2.104
126 1 4.463 3.941 19.823 0.000 0.000 0.000 2.156
127 1 0.738 5.874 29.214 0.001 -0.000 0.003 2.217
128 1 4.006 4.056 29.545 -0.001 -0.002 -0.002 2.258
129 1 1.007 5.588 38.427 0.000 0.001 -0.004 2.328
130 1 4.357 4.049 38.550 -0.002 -0.007 -0.004 2.281
134 3 9.828 2.071 19.444 0.000 0.000 0.000 -1.072
138 3 8.649 3.744 34.728 0.002 0.007 -0.001 -1.232
141 3 7.224 1.230 22.050 0.003 -0.003 0.004 -1.093
143 3 8.162 2.892 31.050 -0.001 0.003 -0.002 -0.979
145 3 7.265 1.725 40.194 0.006 0.006 0.007 -1.035
150 3 11.658 2.414 25.226 0.011 -0.008 0.000 -1.158
152 3 11.580 2.379 34.796 -0.002 0.006 -0.001 -1.316
156 3 9.429 2.131 23.615 -0.002 -0.009 -0.003 -1.153
157 3 10.080 1.831 28.221 0.004 0.002 0.007 -0.895
159 3 7.477 2.002 36.203 -0.011 -0.000 -0.008 -1.277
162 3 8.967 2.022 41.441 -0.003 0.000 -0.003 -0.973
168 3 9.553 2.180 33.180 -0.005 0.007 -0.004 -0.992
169 3 8.337 0.112 19.404 0.000 0.000 0.000 -1.120
170 3 11.991 2.067 20.912 0.000 0.000 0.000 -1.100
173 3 11.251 2.628 39.107 0.005 -0.021 -0.008 -1.066
177 1 9.503 2.015 25.989 0.003 -0.002 -0.002 2.256
179 1 9.675 2.337 35.649 0.000 -0.007 0.000 2.310
183 1 11.496 1.939 23.051 0.002 -0.002 0.005 2.192
185 1 11.695 2.219 32.705 -0.001 -0.005 0.001 2.092
187 2 11.487 2.311 41.576 0.001 -0.003 -0.007 1.692
190 1 7.618 2.008 20.016 0.000 0.000 0.000 2.174
192 1 7.006 2.596 29.302 -0.001 0.002 -0.003 2.207
194 1 7.700 2.284 38.371 -0.005 -0.001 -0.002 2.439
198 3 6.608 4.036 19.356 0.000 0.000 0.000 -1.063
199 3 9.667 5.592 19.337 0.000 0.000 0.000 -1.127
200 3 8.053 2.209 27.384 -0.012 -0.004 0.027 -1.019
201 3 8.070 5.462 27.067 0.001 0.010 0.008 -1.239
202 3 9.514 2.813 37.552 0.001 -0.013 0.002 -1.393
203 3 9.273 5.892 37.736 0.001 -0.006 0.001 -1.267
206 3 7.226 5.641 22.358 -0.002 0.014 -0.004 -1.143
207 3 10.354 3.998 22.197 0.005 -0.000 0.011 -1.058
208 3 7.733 5.770 31.979 -0.006 0.012 0.001 -1.247
209 3 10.676 4.104 31.786 0.010 -0.013 -0.010 -1.107
210 3 6.897 5.654 40.575 -0.004 -0.015 0.009 -1.191
211 3 10.466 4.369 41.273 -0.001 0.004 0.002 -1.029
214 3 8.538 3.781 25.310 -0.002 0.008 -0.008 -1.277
215 3 11.736 5.072 24.940 -0.004 -0.011 0.002 -0.962
216 3 5.292 5.268 34.420 -0.009 0.003 -0.002 -1.151
217 3 12.990 3.995 33.172 0.008 0.016 0.004 -1.204
220 3 6.283 3.725 23.547 -0.008 -0.020 0.002 -1.102
221 3 9.058 5.709 23.808 0.002 -0.005 0.001 -1.067
222 3 5.505 5.432 25.669 -0.010 -0.006 -0.002 -1.207
223 3 10.966 4.591 26.966 0.002 -0.003 -0.004 -1.044
224 3 7.444 5.784 35.932 0.000 0.003 0.007 -1.159
225 3 12.466 4.774 37.443 -0.008 0.003 -0.000 -1.088
227 3 9.019 5.970 42.596 -0.007 0.005 -0.012 -1.083
231 3 6.389 3.474 33.152 -0.001 -0.003 -0.001 -1.175
232 3 10.050 5.625 33.654 -0.007 0.005 -0.002 -1.007
233 3 8.427 3.647 20.952 0.000 0.000 0.000 -1.225
234 3 11.762 5.978 20.872 0.000 0.000 0.000 -1.112
235 3 8.371 4.301 29.161 -0.007 0.005 -0.011 -1.003
236 3 11.847 5.995 29.751 -0.000 0.007 0.008 -1.074
237 3 8.248 4.256 39.184 0.005 0.003 0.012 -1.212
238 3 13.374 7.785 38.182 0.004 -0.013 0.003 -1.107
241 1 6.737 3.904 26.210 -0.000 -0.001 0.005 2.102
242 1 9.812 5.678 25.909 0.001 0.002 0.001 2.256
243 1 6.594 3.852 35.509 -0.002 0.007 -0.001 2.218
244 1 9.499 6.116 35.628 -0.007 -0.001 0.001 2.240
247 1 8.436 3.921 23.094 0.002 0.006 -0.003 2.340
248 1 11.998 5.741 22.888 -0.001 0.002 -0.003 2.306
249 1 8.565 4.240 32.701 -0.004 -0.000 -0.003 2.261
250 1 11.608 6.048 32.021 -0.003 -0.006 0.003 2.197
251 1 8.491 4.155 41.301 -0.001 0.002 -0.003 2.231
252 1 12.012 6.013 41.516 0.001 0.002 0.005 2.273
255 1 7.677 5.633 20.123 0.000 0.000 0.000 2.101
256 1 10.605 3.818 20.133 0.000 0.000 0.000 2.214
257 1 7.281 5.927 29.145 0.003 0.003 -0.005 2.078
258 2 10.770 3.756 29.348 -0.002 -0.008 0.001 1.685
259 1 7.321 6.069 38.668 0.002 -0.001 0.004 2.139
260 1 10.462 4.372 38.257 -0.004 -0.001 0.001 2.346
263 3 12.537 0.171 19.265 0.000 0.000 0.000 -1.002
264 3 17.790 2.402 19.135 0.000 0.000 0.000 -1.124
266 3 16.062 1.596 28.343 -0.007 -0.000 0.006 -1.344
270 3 14.811 1.599 21.628 -0.013 0.006 0.002 -1.135
272 3 13.951 2.289 31.115 -0.008 0.010 0.003 -1.272
274 3 14.864 2.260 41.276 -0.013 -0.009 -0.002 -1.224
279 3 18.748 2.130 25.122 0.004 -0.013 0.004 -1.017
281 3 18.198 1.895 34.726 0.006 -0.002 -0.002 -1.166
285 3 16.593 2.476 24.179 0.003 -0.002 -0.001 -0.999
286 3 13.961 1.736 26.820 -0.004 -0.007 0.005 -1.233
288 3 14.112 2.363 35.712 0.007 -0.001 -0.004 -1.138
291 3 16.727 3.096 42.887 -0.000 0.015 -0.001 -1.049
297 3 16.210 2.307 32.788 -0.003 -0.005 -0.001 -1.156
298 3 15.041 0.456 19.380 0.000 0.000 0.000 -1.151
299 3 17.771 1.182 21.423 0.000 0.000 0.000 -0.903
301 3 18.246 2.272 30.089 -0.004 0.006 0.012 -1.021
303 3 16.323 2.793 37.007 0.000 0.005 0.006 -1.038
307 1 15.972 2.048 26.227 -0.001 0.005 -0.000 2.283
309 1 16.072 1.885 35.143 0.000 -0.003 -0.001 2.353
313 1 18.334 2.353 23.047 0.003 0.002 0.004 2.246
315 1 18.066 2.015 32.254 -0.005 -0.002 -0.005 2.301
317 1 18.361 2.225 41.464 0.001 0.001 -0.001 2.238
320 1 13.752 1.988 19.922 0.000 0.000 0.000 2.199
321 1 17.064 0.459 19.618 0.000 0.000 0.000 2.161
322 1 14.278 2.046 29.149 -0.001 0.004 -0.004 2.146
324 2 14.456 1.798 38.144 -0.002 0.004 -0.002 1.605
328 3 12.549 3.936 19.387 0.000 0.000 0.000 -1.084
329 3 15.921 6.204 19.412 0.000 0.000 0.000 -1.116
330 3 13.089 3.976 28.285 0.017 -0.002 -0.006 -1.133
331 3 17.531 8.295 27.224 -0.006 0.005 -0.001 -1.149
332 3 11.385 5.881 39.577 -0.010 -0.004 -0.001 -1.180
333 3 15.793 6.144 37.534 0.005 0.007 -0.002 -1.119
336 3 14.010 5.838 21.904 0.006 -0.000 -0.003 -1.138
337 3 17.800 3.993 21.911 0.002 -0.004 0.003 -1.205
338 3 14.590 7.606 29.671 -0.011 -0.000 0.001 -1.190
339 3 17.173 4.045 31.259 0.009 -0.003 0.000 -0.989
340 3 13.955 5.944 40.614 -0.002 0.008 0.009 -1.170
341 3 17.969 1.950 39.213 0.010 -0.015 -0.009 -1.201
344 3 18.247 6.051 25.358 -0.018 0.001 -0.009 -1.060
345 3 15.611 3.850 34.448 -0.007 0.008 -0.002 -1.129
346 3 18.099 6.073 34.650 -0.005 0.004 -0.000 -1.234
349 3 12.504 3.694 23.276 0.010 -0.004 0.009 -0.998
350 3 16.251 5.870 23.940 0.004 0.011 0.004 -1.099
351 3 14.936 4.114 25.795 -0.004 0.001 0.002 -1.151
352 3 17.235 3.735 26.928 -0.012 0.008 -0.006 -1.161
353 3 14.079 5.457 35.569 0.000 0.021 -0.006 -1.163
354 3 17.787 4.647 36.496 0.020 -0.001 -0.004 -1.122
356 3 16.225 6.050 42.496 -0.004 -0.001 -0.001 -1.313
361 3 13.640 5.996 31.412 0.011 0.007 0.008 -1.285
362 3 15.864 5.714 32.509 -0.011 0.003 -0.002 -1.121
363 3 15.037 3.722 19.639 0.000 0.000 0.000 -1.171
364 3 18.493 5.606 19.488 0.000 0.000 0.000 -1.159
365 3 15.089 4.107 29.794 0.001 0.003 0.006 -1.255
366 3 18.905 4.669 28.281 -0.012 -0.003 -0.004 -1.032
367 3 15.591 4.482 39.404 0.005 0.006 0.001 -1.037
368 3 20.399 6.145 40.864 -0.008 -0.001 -0.004 -1.135
371 1 12.818 3.781 26.223 0.001 0.002 0.001 2.196
372 1 16.007 5.855 26.173 0.003 -0.000 -0.003 2.192
373 1 12.953 3.950 35.409 -0.002 -0.003 -0.001 2.242
374 1 16.212 5.556 35.279 0.002 0.001 0.001 2.232
377 2 14.998 3.809 22.979 -0.009 0.006 0.003 1.616
378 1 18.233 5.942 23.135 -0.002 0.001 0.002 2.214
379 1 14.788 4.067 32.251 -0.000 0.002 0.004 2.245
380 1 18.051 5.622 32.366 0.001 0.002 -0.003 2.191
381 1 15.385 4.130 41.600 -0.003 -0.002 0.000 2.164
382 1 18.395 5.820 41.861 0.004 -0.005 -0.000 2.183
385 1 13.797 5.702 19.676 0.000 0.000 0.000 2.110
386 1 17.074 4.184 19.822 0.000 0.000 0.000 2.016
387 1 13.924 5.783 29.266 -0.002 0.004 -0.004 2.320
388 1 16.929 3.752 29.138 0.001 -0.001 0.000 2.197
389 1 14.113 5.899 38.454 0.006 -0.003 0.000 2.170
390 1 17.487 3.786 38.428 -0.000 0.002 0.003 2.261
394 3 22.553 2.319 19.102 0.000 0.000 0.000 -0.980
398 3 23.985 2.424 39.513 0.006 0.010 -0.003 -1.242
401 3 20.435 2.496 22.567 0.001 0.010 0.000 -1.181
403 3 20.053 1.963 31.487 -0.007 -0.018 -0.005 -1.178
405 3 19.494 3.855 42.763 0.005 -0.006 0.002 -1.184
412 3 23.369 4.229 36.289 0.006 -0.012 -0.015 -1.276
416 3 22.891 1.760 23.913 0.001 0.003 0.019 -1.055
417 3 22.738 1.993 29.454 0.010 0.009 0.003 -1.072
419 3 19.632 1.811 36.444 0.013 -0.005 0.002 -1.185
422 3 23.293 4.306 41.291 0.009 0.003 -0.015 -1.117
428 3 22.113 2.069 33.181 0.007 0.010 -0.007 -1.248
429 3 21.127 0.328 20.740 0.000 0.000 0.000 -1.014
430 3 23.368 2.489 21.598 0.008 -0.004 0.007 -1.072
432 3 25.101 1.763 30.418 -0.010 -0.007 0.003 -1.051
438 1 22.394 2.238 26.155 0.000 0.004 -0.002 2.226
440 1 22.167 2.542 35.142 0.004 -0.005 -0.000 2.070
443 1 21.410 0.560 23.001 0.002 0.002 -0.000 2.262
444 1 24.705 2.093 23.122 0.005 0.003 0.001 2.139
446 1 24.352 2.185 32.443 -0.002 -0.001 -0.000 2.242
448 1 24.374 2.487 41.572 0.002 -0.006 -0.002 2.298
451 2 20.178 2.057 19.185 0.000 0.000 0.000 1.660
452 1 23.654 0.697 20.057 0.000 0.000 0.000 2.030
453 1 20.384 1.918 29.312 -0.003 -0.005 -0.002 2.297
455 1 20.470 1.961 38.211 -0.005 -0.001 0.004 2.259
459 3 22.396 6.231 19.569 0.000 0.000 0.000 -1.048
460 3 20.466 2.489 27.344 0.002 -0.012 0.002 -1.147
461 3 24.587 5.474 30.296 0.012 -0.002 -0.001 -1.211
462 3 19.826 3.882 37.429 0.007 -0.006 -0.006 -1.111
463 3 22.434 6.156 37.880 0.000 -0.005 0.002 -1.028
466 3 20.048 5.505 22.227 -0.004 0.001 -0.002 -1.161
467 3 22.870 4.883 21.925 -0.002 -0.001 -0.010 -1.174
468 3 20.420 5.506 31.588 -0.007 0.003 -0.007 -1.240
469 3 23.060 3.948 31.652 -0.002 0.009 0.007 -1.199
471 3 24.646 5.423 38.937 0.001 -0.009 -0.003 -1.262
474 3 21.882 3.863 25.029 0.003 -0.003 0.011 -1.229
475 3 24.544 5.430 25.216 0.001 0.006 0.001 -1.166
476 3 21.100 4.198 34.509 -0.005 -0.006 0.011 -1.399
480 3 19.667 4.263 24.213 0.008 -0.007 -0.008 -1.049
481 3 22.050 6.372 24.177 -0.005 0.022 -0.002 -1.194
482 3 20.541 5.680 27.147 -0.006 -0.005 -0.003 -1.104
483 3 23.130 4.039 27.040 -0.002 0.008 -0.001 -1.076
484 3 20.419 6.049 35.982 0.007 0.005 -0.003 -1.057
485 3 22.211 2.287 37.325 -0.005 0.008 0.001 -1.201
486 3 17.752 4.257 40.444 -0.001 -0.003 0.002 -1.110
487 3 21.535 5.638 42.872 -0.003 -0.016 -0.005 -1.058
492 3 18.895 3.734 33.313 -0.002 -0.010 -0.001 -1.286
493 3 22.875 6.414 33.274 -0.016 -0.005 0.004 -1.077
494 3 21.183 4.279 19.663 0.000 0.000 0.000 -1.000
495 3 24.817 5.508 20.070 0.000 0.000 0.000 -1.081
496 3 20.987 4.026 29.921 -0.005 -0.001 0.014 -1.104
498 3 21.959 4.209 39.245 0.009 -0.010 0.013 -1.128
502 1 19.266 4.048 26.367 -0.004 -0.004 0.002 2.233
503 1 22.368 5.862 26.184 -0.006 -0.001 -0.001 2.343
504 1 19.115 3.793 35.321 0.001 0.002 0.001 2.289
505 1 22.290 5.700 35.304 -0.002 -0.002 0.001 2.271
508 1 21.371 4.144 23.189 -0.006 0.004 0.001 2.331
509 1 24.325 5.796 23.176 -0.004 -0.002 -0.001 2.332
510 1 20.994 3.671 32.292 -0.001 0.001 -0.001 2.204
511 1 24.568 5.738 32.300 -0.005 0.005 -0.003 2.317
512 1 21.327 3.925 41.623 -0.000 0.006 0.001 2.286
513 1 24.775 5.859 41.692 -0.000 0.002 -0.000 2.163
516 1 20.403 6.034 20.157 0.000 0.000 0.000 2.297
517 1 23.352 3.966 19.998 0.000 0.000 0.000 2.278
518 1 20.123 5.925 29.385 0.001 0.006 0.001 2.319
519 1 23.216 4.130 29.536 -0.002 0.001 0.003 2.360
520 1 20.425 5.675 38.551 0.001 -0.002 -0.004 2.177
521 1 23.440 3.921 38.291 0.001 -0.003 -0.004 2.518
524 3 25.592 0.122 19.242 0.000 0.000 0.000 -1.108
589 3 24.997 2.634 19.510 0.000 0.000 0.000 -1.053
2080 3 0.080 7.586 18.848 0.000 0.000 0.000 -1.106
2081 3 2.664 8.225 19.641 0.000 0.000 0.000 -0.970
2083 3 3.256 11.147 27.362 0.012 -0.004 -0.001 -0.998
2085 3 2.121 10.797 39.190 0.001 0.012 -0.004 -1.026
2088 3 1.152 9.764 21.772 0.004 0.010 -0.001 -1.220
2089 3 4.416 7.924 22.123 0.005 0.005 0.012 -1.135
2090 3 1.397 9.103 31.402 -0.001 -0.002 -0.005 -0.909
2091 3 5.130 7.245 31.049 -0.009 0.003 0.005 -1.014
2092 3 0.477 9.008 41.146 -0.003 0.002 0.003 -1.276
2093 3 4.981 5.838 39.046 0.001 0.002 0.002 -1.106
2096 3 2.130 7.501 26.053 -0.003 0.004 0.018 -1.249
2097 3 4.974 10.074 25.200 -0.004 0.001 0.010 -1.053
2099 3 4.361 8.454 34.647 0.004 -0.003 -0.007 -0.989
2103 3 3.279 9.258 23.655 -0.006 0.007 0.003 -1.256
2105 3 4.586 7.830 26.136 -0.016 0.001 -0.005 -1.025
2107 3 3.114 9.257 37.599 -0.007 0.001 0.002 -1.141
2115 3 2.391 9.497 32.963 0.002 -0.004 0.002 -0.938
2116 3 1.883 7.109 20.988 0.000 0.000 0.000 -0.987
2117 3 5.332 9.411 19.736 0.000 0.000 0.000 -1.079
2118 3 2.963 9.173 28.494 0.008 -0.005 0.014 -1.174
2119 3 4.923 9.786 29.399 0.001 0.005 -0.010 -1.119
2120 3 1.948 7.193 38.767 -0.001 0.007 -0.003 -1.176
2121 3 5.099 9.350 39.218 -0.009 0.003 -0.002 -1.408
2125 1 3.143 9.406 26.244 0.001 -0.006 0.003 2.245
2127 1 2.838 9.403 35.608 -0.001 0.004 0.001 2.293
2130 1 2.197 7.542 23.049 0.005 0.005 -0.001 2.249
2131 1 5.262 9.233 23.422 0.002 0.001 -0.002 2.325
2132 1 2.063 7.270 32.408 -0.001 -0.002 -0.006 2.152
2133 2 4.813 9.237 32.372 0.000 -0.005 0.001 1.676
2134 1 1.946 7.599 41.556 0.000 -0.001 -0.000 2.179
2135 1 5.163 9.152 41.483 -0.006 -0.001 0.001 2.152
2138 1 0.977 9.496 19.852 0.000 0.000 0.000 2.244
2139 1 4.366 7.432 20.081 0.000 0.000 0.000 2.306
2140 1 1.317 9.834 29.396 -0.004 0.002 0.003 2.234
2141 1 4.102 7.565 29.096 -0.002 0.003 -0.007 2.088
2142 1 0.723 9.184 38.930 -0.004 -0.002 -0.001 2.002
2143 1 4.118 7.746 38.554 0.001 -0.000 0.003 2.377
2146 3 0.022 11.240 19.029 0.000 0.000 0.000 -1.036
2147 3 3.170 13.236 19.491 0.000 0.000 0.000 -1.031
2149 3 2.885 13.642 28.601 0.002 0.002 -0.002 -1.045
2151 3 3.270 12.538 37.518 -0.005 -0.012 0.001 -1.255
2154 3 1.099 12.723 22.092 -0.006 0.007 -0.003 -1.116
2155 3 3.980 11.567 22.335 -0.001 -0.007 -0.004 -1.168
2156 3 0.742 13.607 31.542 -0.004 0.000 0.005 -1.115
2157 3 4.147 11.626 31.718 -0.003 0.015 0.006 -1.114
2159 3 4.181 7.234 40.581 0.024 -0.001 -0.015 -1.151
2162 3 2.124 10.953 25.206 0.011 -0.002 -0.003 -1.106
2163 3 6.703 14.271 24.210 0.004 -0.014 0.004 -1.161
2164 3 1.636 11.065 34.902 0.002 -0.009 -0.012 -1.109
2165 3 4.677 12.757 34.300 0.015 -0.005 0.004 -1.183
2169 3 3.376 13.849 23.884 0.005 0.007 0.006 -1.005
2172 3 4.334 10.877 35.691 0.000 -0.002 -0.016 -1.145
2180 3 2.368 13.404 33.417 -0.007 0.001 -0.014 -1.126
2181 3 2.388 10.949 19.611 0.000 0.000 0.000 -1.076
2182 3 5.581 12.872 19.891 0.000 0.000 0.000 -1.162
2183 3 2.013 11.670 30.314 -0.020 0.002 -0.001 -1.285
2184 3 6.434 15.378 29.037 0.003 0.006 0.011 -1.331
2185 3 1.666 12.990 40.695 0.002 -0.011 0.002 -1.123
2186 3 5.141 12.970 39.211 0.003 0.004 -0.027 -1.093
2190 2 2.915 13.195 26.176 0.000 0.002 -0.007 1.622
2192 1 3.196 12.910 35.481 -0.004 0.002 -0.006 2.282
2195 1 2.172 10.975 23.084 -0.001 0.002 0.004 2.185
2196 1 5.339 13.142 22.937 0.006 -0.003 -0.004 2.060
2197 1 1.900 11.499 32.539 0.001 -0.002 -0.001 2.201
2198 1 5.212 13.125 32.271 0.004 -0.005 0.005 2.469
2199 1 1.843 11.227 41.625 0.003 0.000 -0.002 2.282
2200 1 5.050 13.063 41.811 -0.002 0.002 0.005 2.301
2203 1 1.045 12.961 19.923 0.000 0.000 0.000 2.086
2204 1 4.396 11.329 20.041 0.000 0.000 0.000 2.047
2205 1 0.889 13.206 29.421 -0.001 -0.002 -0.004 2.196
2206 1 4.132 11.711 29.337 0.000 0.002 -0.004 2.108
2207 1 1.501 12.874 38.512 -0.004 0.003 -0.001 2.331
2208 1 4.308 11.138 38.679 0.000 -0.000 0.006 2.314
2211 3 6.518 7.309 19.536 0.000 0.000 0.000 -1.088
2212 3 9.572 9.336 18.992 0.000 0.000 0.000 -1.110
2213 3 5.834 6.964 28.067 -0.004 0.001 0.004 -1.172
2214 3 8.623 10.664 29.957 -0.007 0.006 0.007 -1.024
2215 3 6.656 8.014 37.418 -0.003 -0.008 -0.000 -1.255
2216 3 9.103 9.833 37.765 0.004 -0.005 0.003 -1.187
2219 3 7.130 9.286 22.145 -0.004 -0.002 -0.012 -1.109
2220 3 10.839 7.448 22.838 0.003 0.002 -0.014 -1.136
2221 3 7.143 9.241 31.497 -0.007 0.005 -0.009 -1.009
2222 3 10.220 7.254 31.414 0.005 0.004 0.001 -1.089
2223 3 7.200 9.192 40.695 0.001 0.009 0.005 -1.178
2224 3 10.564 7.740 41.287 0.010 0.012 0.003 -1.099
2227 3 8.916 7.709 25.668 -0.002 -0.005 -0.007 -1.168
2228 3 12.252 9.585 25.287 0.009 0.010 -0.006 -1.103
2229 3 9.461 7.760 34.303 0.003 0.012 -0.002 -1.092
2230 3 11.488 9.823 35.086 -0.016 0.004 -0.007 -1.132
2233 3 6.336 7.360 23.946 -0.007 0.005 -0.002 -1.236
2234 3 9.601 9.271 23.805 -0.002 -0.005 -0.012 -1.132
2235 3 7.334 8.972 27.334 0.011 0.001 -0.007 -1.118
2236 3 11.226 7.495 26.030 0.004 -0.006 -0.000 -1.194
2237 3 7.383 9.503 35.431 -0.003 0.006 -0.002 -1.100
2238 3 10.652 7.743 36.742 0.002 0.000 -0.000 -1.161
2240 3 8.597 9.608 42.622 -0.004 -0.006 0.004 -1.218
2245 3 6.893 7.411 33.636 0.003 -0.002 -0.002 -1.233
2246 3 9.407 9.611 32.231 -0.006 -0.005 0.000 -1.103
2247 3 8.949 7.610 20.784 0.000 0.000 0.000 -1.320
2248 3 12.070 8.837 20.735 0.000 0.000 0.000 -1.057
2249 3 8.060 7.946 29.576 0.006 0.004 0.012 -1.142
2250 3 8.670 7.788 39.522 0.007 -0.014 -0.005 -1.159
2251 3 11.717 9.431 39.360 -0.009 -0.016 0.008 -1.243
2254 1 6.750 7.223 26.086 0.001 -0.003 -0.001 2.107
2255 1 10.186 9.234 25.811 -0.005 0.001 -0.002 2.219
2256 1 6.170 7.645 35.427 -0.004 -0.003 -0.003 2.257
2257 1 9.609 9.708 35.647 0.002 -0.003 0.003 2.104
2260 1 8.457 7.621 22.804 0.002 -0.003 -0.003 2.121
2261 1 11.602 9.309 22.680 -0.000 0.001 0.001 2.313
2262 1 8.367 7.892 32.548 -0.001 0.002 0.000 2.334
2263 2 11.829 10.117 32.660 -0.000 -0.003 -0.003 1.628
2264 1 8.422 7.857 41.757 0.000 -0.003 -0.000 2.316
2265 1 11.811 9.433 41.616 -0.003 0.003 -0.002 2.319
2268 1 7.585 9.207 19.958 0.000 0.000 0.000 2.092
2269 1 10.717 7.534 19.765 0.000 0.000 0.000 2.146
2270 1 7.011 9.482 29.223 0.000 -0.001 0.003 2.231
2271 2 10.532 8.004 29.362 0.007 -0.003 -0.002 1.607
2272 1 7.118 9.513 38.538 -0.004 0.001 0.000 2.289
2273 1 10.491 7.705 38.709 -0.004 0.004 0.001 2.153
2276 3 7.643 11.249 20.014 0.000 0.000 0.000 -0.904
2277 3 11.348 13.113 19.059 0.000 0.000 0.000 -1.014
2278 3 6.422 11.677 29.273 0.002 0.005 0.003 -1.040
2279 3 8.852 12.513 28.171 -0.000 -0.013 -0.001 -1.133
2280 3 6.337 11.183 37.562 0.013 -0.004 0.015 -1.217
2281 3 7.434 15.250 39.412 0.005 0.007 0.003 -1.011
2284 3 7.627 13.404 21.965 0.006 -0.001 0.003 -1.158
2285 3 10.686 10.503 21.366 0.000 0.000 0.000 -1.060
2286 3 6.541 11.301 33.260 0.005 -0.002 -0.006 -1.099
2287 3 7.048 12.824 31.519 0.008 -0.002 0.007 -1.143
2288 3 7.706 13.124 40.710 0.004 0.004 0.003 -1.071
2289 3 10.131 10.417 40.914 -0.007 -0.006 -0.004 -1.124
2292 3 9.110 11.116 25.788 0.014 0.009 0.007 -1.027
2293 3 11.987 13.001 25.873 0.016 -0.002 -0.003 -1.377
2294 3 9.201 11.199 34.320 -0.007 0.003 0.009 -1.138
2295 3 11.411 13.145 34.513 -0.000 -0.011 0.003 -1.261
2298 3 5.966 11.138 23.268 0.016 -0.006 0.004 -0.989
2299 3 9.700 13.405 24.082 -0.005 -0.002 0.015 -1.161
2300 3 6.392 13.311 27.286 0.004 -0.003 0.002 -1.102
2301 3 10.934 10.699 27.237 -0.008 0.000 0.010 -1.261
2302 3 9.417 13.561 37.593 -0.003 0.007 -0.008 -0.947
2303 3 10.784 11.849 36.773 0.010 -0.009 0.009 -1.275
2304 3 6.243 11.494 42.137 0.005 -0.008 -0.000 -1.214
2305 3 9.564 12.640 42.566 0.004 0.016 0.003 -1.052
2310 3 11.269 11.847 30.963 0.003 -0.004 0.003 -1.111
2311 3 8.887 11.933 18.888 0.000 0.000 0.000 -0.845
2312 3 11.404 13.368 21.411 0.000 0.000 0.000 -0.989
2313 3 4.946 13.426 30.326 -0.000 -0.006 0.002 -1.213
2314 3 13.617 13.499 31.403 -0.012 -0.002 -0.007 -1.022
2315 3 8.355 11.439 39.256 -0.004 -0.008 -0.005 -1.130
2316 3 11.195 12.759 39.194 0.006 0.017 0.017 -1.110
2318 2 6.796 11.164 26.283 0.001 -0.002 -0.001 1.617
2319 1 9.978 13.009 26.445 0.005 -0.002 0.004 2.071
2320 1 6.289 11.417 35.371 -0.003 -0.002 -0.000 2.161
2321 1 9.768 13.030 35.512 -0.002 -0.001 0.001 2.331
2324 2 8.798 11.448 22.641 0.001 0.002 0.006 1.631
2325 1 11.759 13.406 23.468 0.001 -0.000 -0.004 2.297
2326 1 8.301 11.188 32.279 0.001 -0.002 -0.002 2.257
2327 1 11.727 13.203 32.551 0.002 -0.002 0.000 2.208
2328 1 8.375 11.231 41.420 -0.003 0.002 0.003 2.329
2329 2 11.713 13.105 41.625 -0.000 0.004 -0.003 1.637
2332 1 7.668 13.405 19.823 0.000 0.000 0.000 2.121
2333 1 10.750 11.063 19.356 0.000 0.000 0.000 2.101
2334 1 7.334 13.465 29.278 0.003 0.009 0.006 2.257
2335 1 10.518 11.483 29.104 -0.002 -0.001 -0.007 2.111
2336 1 7.333 13.067 38.516 -0.002 -0.003 -0.001 2.321
2337 1 10.630 11.080 38.562 0.002 0.000 -0.003 2.335
2340 3 12.823 7.387 18.914 0.000 0.000 0.000 -1.107
2341 3 16.304 9.456 19.283 0.000 0.000 0.000 -1.086
2342 3 13.954 6.424 27.282 -0.003 0.013 -0.008 -1.177
2343 3 15.909 9.787 28.928 0.003 -0.004 -0.002 -1.237
2344 3 10.816 4.636 36.098 0.010 0.004 -0.004 -1.094
2345 3 15.809 9.836 37.850 -0.007 -0.000 0.014 -1.105
2348 3 13.553 9.047 22.995 0.001 -0.001 0.006 -1.056
2349 3 17.645 7.513 21.920 0.008 -0.009 0.011 -1.226
2350 3 14.238 9.597 32.088 -0.013 -0.001 -0.002 -1.337
2351 3 18.167 6.208 30.294 0.004 0.015 0.008 -1.093
2352 3 13.991 9.732 41.042 0.004 0.004 -0.000 -1.144
2353 3 17.668 7.648 40.756 -0.004 -0.002 0.007 -1.128
2356 3 15.406 7.793 26.088 -0.016 0.009 -0.002 -1.146
2357 3 17.285 9.756 24.970 0.000 0.011 -0.007 -0.781
2358 3 15.679 7.493 34.324 0.002 0.002 0.004 -1.070
2359 3 18.924 9.294 34.554 -0.009 0.001 0.014 -0.979
2362 3 13.513 6.641 24.125 0.007 0.006 0.006 -1.105
2363 3 16.024 9.359 22.988 -0.007 0.007 -0.001 -0.964
2364 3 13.967 9.565 27.067 0.006 0.008 0.011 -1.092
2365 3 19.805 7.900 28.370 0.000 0.007 0.000 -1.158
2366 3 13.976 9.817 36.212 -0.005 -0.001 0.011 -1.189
2367 3 17.304 8.078 36.393 0.001 -0.004 -0.018 -1.129
2368 3 12.850 7.773 42.307 -0.014 0.005 -0.000 -1.297
2369 3 16.266 9.351 42.611 0.009 0.012 0.010 -1.227
2374 3 12.786 7.197 33.281 0.005 0.014 0.001 -1.100
2375 3 16.244 8.029 31.334 0.001 0.003 0.001 -1.111
2376 3 14.852 7.894 20.624 0.000 0.000 0.000 -1.089
2377 3 18.307 9.701 20.947 0.000 0.000 0.000 -1.054
2378 3 16.293 5.828 28.394 0.001 -0.006 -0.000 -1.076
2379 3 18.527 9.033 30.388 -0.003 -0.005 0.015 -1.082
2380 3 15.412 7.663 39.682 0.003 -0.011 0.003 -1.085
2381 3 18.139 9.547 39.106 0.005 -0.004 -0.000 -1.125
2384 1 13.262 7.691 26.023 0.004 -0.001 -0.001 2.229
2385 1 16.067 9.679 26.658 -0.000 -0.001 -0.004 2.350
2386 2 12.907 7.602 35.688 -0.000 -0.004 0.002 1.660
2387 1 15.867 9.372 35.462 -0.001 0.001 0.002 2.199
2390 1 14.924 7.548 22.728 0.001 -0.001 -0.005 2.149
2391 1 18.068 9.535 22.960 -0.002 0.001 -0.001 2.281
2392 1 14.670 7.546 32.259 -0.002 0.001 0.011 2.273
2393 1 18.042 9.349 32.481 -0.000 0.002 -0.006 2.380
2394 1 14.973 7.559 41.784 0.001 -0.002 -0.003 2.238
2395 1 18.080 9.406 41.621 0.004 -0.002 0.002 2.216
2398 1 14.056 9.230 19.403 0.000 0.000 0.000 2.072
2399 1 17.262 7.698 19.899 0.000 0.000 0.000 2.156
2400 1 14.123 9.700 29.834 -0.001 -0.005 -0.002 2.209
2401 1 16.982 7.656 29.343 0.002 0.002 0.000 2.184
2402 1 13.997 9.628 38.798 -0.001 -0.004 0.000 2.230
2403 1 17.198 7.462 38.653 -0.003 0.001 0.005 2.323
2406 3 12.752 10.831 18.766 0.000 0.000 0.000 -1.083
2407 3 16.058 13.344 19.325 0.000 0.000 0.000 -1.063
2408 3 11.970 9.679 29.576 0.001 -0.004 -0.011 -1.001
2409 3 16.204 13.210 28.673 -0.005 -0.002 0.001 -1.073
2410 3 12.881 11.314 37.951 -0.002 -0.006 0.023 -1.212
2411 3 14.877 11.590 39.551 0.007 -0.016 -0.012 -1.230
2414 3 13.703 13.659 23.390 -0.014 0.011 -0.016 -1.138
2415 3 17.271 11.480 22.310 -0.003 -0.018 -0.017 -1.099
2416 3 15.214 11.719 30.616 0.006 0.005 -0.007 -1.239
2417 3 17.387 11.224 31.832 0.002 0.006 -0.018 -1.246
2418 3 14.284 13.038 41.728 0.001 0.009 -0.012 -1.130
2422 3 15.090 11.344 25.650 -0.000 0.013 -0.010 -1.090
2423 3 17.709 12.917 25.117 -0.001 0.003 0.012 -1.185
2424 3 16.329 9.966 33.705 0.001 0.011 0.002 -1.211
2425 3 18.087 13.334 34.654 0.001 -0.015 0.008 -1.148
2428 3 12.054 11.325 23.132 -0.003 0.001 0.003 -1.005
2429 3 14.967 15.049 25.310 0.010 -0.011 0.005 -1.136
2430 3 13.184 14.934 29.269 -0.007 -0.007 0.010 -1.048
2431 3 17.154 11.405 27.306 0.005 0.000 -0.007 -1.067
2432 3 13.594 13.233 36.019 0.005 -0.009 -0.004 -1.205
2433 3 16.887 11.183 35.427 -0.009 0.002 0.012 -1.025
2435 3 17.232 14.800 41.131 -0.007 -0.005 0.003 -1.181
2440 3 13.172 11.778 33.651 0.005 0.001 -0.008 -1.076
2441 3 15.748 12.878 33.539 -0.007 0.009 -0.006 -1.245
2442 3 14.975 11.137 19.932 0.000 0.000 0.000 -0.969
2443 3 18.140 13.485 20.932 0.000 0.000 0.000 -1.106
2444 3 13.467 11.288 28.946 -0.003 0.005 -0.013 -1.153
2445 3 17.861 13.853 30.823 -0.000 -0.005 0.002 -1.213
2446 3 16.935 11.570 40.950 0.008 0.002 0.019 -1.197
2447 3 18.417 13.149 39.443 -0.006 0.007 0.007 -1.198
2450 1 12.943 11.325 26.546 0.003 0.000 -0.001 2.188
2451 1 16.161 13.316 26.308 -0.001 0.001 0.005 2.171
2452 1 12.726 11.455 35.793 -0.004 0.003 0.008 2.210
2453 1 16.099 13.251 35.503 0.002 0.001 -0.002 2.275
2456 2 14.648 11.287 23.302 0.001 -0.001 -0.001 1.672
2457 1 18.200 13.257 23.274 -0.001 0.001 0.000 2.301
2458 1 15.338 11.316 32.550 0.000 0.006 -0.000 2.290
2459 1 18.233 13.161 32.590 -0.000 0.001 0.003 2.269
2460 1 15.237 11.261 41.870 0.002 -0.005 -0.003 2.258
2461 1 18.365 13.164 41.940 0.005 -0.002 -0.002 2.202
2464 2 13.797 12.979 18.821 0.000 0.000 0.000 1.649
2465 1 17.035 11.422 20.031 0.000 0.000 0.000 2.108
2466 1 14.138 13.076 29.263 -0.001 0.001 0.008 2.258
2467 1 17.242 11.404 29.633 -0.004 -0.001 -0.002 2.205
2468 1 14.210 12.916 38.357 -0.003 0.002 -0.001 2.221
2469 1 17.068 11.335 38.732 0.000 -0.000 0.002 2.244
2472 3 19.397 7.899 19.465 0.000 0.000 0.000 -1.030
2473 3 22.611 9.435 19.762 0.000 0.000 0.000 -1.066
2474 3 22.640 5.803 28.708 0.005 -0.007 -0.001 -1.101
2475 3 20.903 10.232 27.454 0.006 0.014 0.001 -1.140
2476 3 18.305 5.906 38.918 0.006 0.005 0.003 -1.066
2477 3 23.998 11.688 36.680 0.001 -0.018 0.015 -1.059
2480 3 20.341 9.786 22.384 -0.007 0.000 -0.005 -1.214
2481 3 23.992 7.478 22.111 -0.008 0.004 0.000 -1.176
2482 3 20.460 9.364 32.296 0.009 0.000 0.003 -1.105
2483 3 23.811 9.282 34.136 -0.009 -0.011 0.010 -1.009
2484 3 19.928 9.835 40.480 0.004 -0.010 0.010 -1.194
2485 3 23.057 10.887 40.982 0.008 -0.004 -0.003 -1.170
2488 3 21.266 7.917 26.017 0.007 0.000 -0.017 -1.239
2490 3 21.139 7.639 34.518 -0.008 0.001 -0.001 -1.045
2494 3 19.285 7.681 23.859 0.022 0.004 -0.002 -1.114
2495 3 22.609 9.446 23.629 -0.009 -0.005 0.013 -1.069
2496 3 19.024 9.803 25.368 -0.005 -0.007 -0.006 -0.950
2497 3 23.432 7.492 26.970 0.018 0.007 -0.006 -1.187
2498 3 19.402 7.630 37.686 0.002 0.012 0.002 -1.150
2499 3 22.971 9.635 37.575 0.020 0.004 0.006 -1.021
2506 3 18.809 7.613 32.719 -0.003 -0.010 0.007 -1.158
2507 3 20.372 9.598 36.473 -0.002 -0.013 -0.003 -1.135
2508 3 21.180 7.624 21.207 0.000 0.000 0.000 -1.098
2509 3 24.830 9.960 21.066 0.000 0.000 0.000 -1.135
2510 3 21.443 7.535 30.280 0.000 -0.010 0.009 -1.148
2511 3 22.801 9.463 28.954 -0.002 0.025 0.002 -1.264
2512 3 21.559 8.010 39.289 0.000 -0.001 0.009 -1.105
2513 3 24.294 9.454 39.395 -0.024 -0.006 -0.017 -1.090
2516 1 19.358 7.772 26.342 -0.003 -0.002 -0.002 2.263
2517 1 22.491 9.375 26.510 0.000 0.001 -0.006 2.409
2518 1 19.076 7.480 35.643 0.001 0.004 0.001 2.429
2519 1 22.438 9.185 35.721 0.001 0.001 0.005 2.233
2522 1 21.272 7.882 23.244 0.002 0.000 0.000 2.255
2523 1 24.767 9.342 23.074 -0.006 -0.002 0.003 2.316
2524 1 20.987 7.366 32.442 0.001 0.000 0.001 2.183
2525 1 24.422 9.561 32.258 -0.000 0.005 0.007 2.231
2526 1 21.437 7.648 41.609 -0.000 -0.002 0.001 2.214
2527 1 24.382 9.439 41.682 0.002 -0.005 -0.004 2.311
2530 1 20.420 9.726 20.230 0.000 0.000 0.000 2.150
2531 1 23.698 7.625 20.104 0.000 0.000 0.000 2.162
2532 1 20.385 9.517 29.545 -0.000 -0.008 -0.001 2.258