ITEM: TIMESTEP
10000
ITEM: NUMBER OF ATOMS
37374
ITEM: BOX BOUNDS pp pp pp
0.000000 102.779942
0.000000 118.660062
0.000000 130.735200
ITEM: ATOMS id type x y z vx vy vz q
2 3 3.194 2.308 19.117 0.000 0.000 0.000 -1.063
4 3 3.407 2.210 28.621 0.001 0.001 0.014 -1.011
6 3 3.061 2.570 38.112 -0.006 0.008 -0.007 -1.093
9 3 1.248 1.310 21.643 -0.005 0.008 0.002 -1.046
11 3 0.714 2.038 31.442 -0.005 -0.007 0.003 -1.080
13 3 1.403 1.658 40.339 0.004 -0.008 -0.002 -1.013
17 3 0.769 0.867 24.499 0.001 -0.009 -0.009 -0.936
18 3 5.711 2.246 25.457 0.006 -0.001 -0.001 -1.117
20 3 5.141 1.814 35.022 -0.000 -0.009 0.012 -1.063
24 3 3.119 2.375 23.718 0.004 -0.001 -0.011 -1.062
25 3 0.837 2.291 26.807 0.000 -0.007 0.001 -1.190
30 3 3.440 2.323 42.933 -0.001 0.003 -0.004 -1.056
36 3 3.278 2.938 33.369 -0.002 0.001 0.003 -1.121
37 3 1.881 0.228 19.742 0.000 0.000 0.000 -1.137
38 3 5.513 1.819 19.848 0.000 0.000 0.000 -1.020
40 3 5.344 2.403 29.815 0.016 -0.008 -0.001 -1.037
42 3 5.231 1.953 39.387 0.000 0.001 0.008 -1.141
46 2 3.287 2.557 26.243 0.002 -0.002 -0.005 1.722
48 1 3.091 2.067 35.436 -0.008 -0.005 0.002 2.402
52 1 5.177 1.829 23.108 -0.001 -0.005 -0.002 2.210
54 1 4.926 2.491 32.176 -0.007 -0.008 0.005 2.136
56 1 5.138 1.904 41.755 -0.006 -0.004 -0.000 2.368
59 1 1.108 2.215 19.775 0.000 0.000 0.000 2.210
60 1 4.018 0.309 19.738 0.000 0.000 0.000 2.245
61 1 1.003 2.087 29.038 -0.002 -0.000 -0.000 2.161
63 1 1.037 2.025 38.257 0.000 -0.006 -0.001 2.316
67 3 0.086 4.021 19.084 0.000 0.000 0.000 -1.093
68 3 3.421 5.669 19.058 0.000 0.000 0.000 -1.078
70 3 2.938 6.225 28.978 0.007 -0.001 -0.009 -1.032
72 3 2.896 6.284 37.359 -0.007 -0.005 0.004 -1.241
75 3 0.273 4.120 22.992 0.005 -0.013 0.019 -1.124
76 3 4.235 3.352 21.916 0.000 -0.002 -0.011 -1.092
77 3 0.610 5.806 31.543 -0.011 0.004 -0.003 -1.280
78 3 3.924 4.346 31.252 0.011 -0.008 -0.002 -1.299
79 3 0.907 6.389 40.246 0.001 -0.006 -0.002 -1.096
80 3 4.904 3.804 40.774 0.003 -0.008 0.001 -1.000
83 3 1.050 5.563 25.860 -0.004 0.000 0.004 -1.008
84 3 4.967 4.952 25.148 0.013 -0.012 0.003 -1.092
85 3 2.096 3.937 35.315 0.012 0.007 -0.000 -1.078
86 3 5.259 5.677 35.503 0.003 -0.007 0.001 -1.263
89 3 2.420 4.490 24.876 0.009 -0.001 0.004 -0.893
90 3 3.160 6.001 23.078 -0.004 -0.019 -0.009 -1.327
92 3 3.480 4.786 27.350 -0.006 -0.002 0.001 -0.953
94 3 4.603 3.208 36.695 -0.009 0.006 0.000 -0.899
96 3 2.226 5.913 42.879 -0.013 -0.014 0.005 -0.991
102 3 3.046 5.951 33.246 -0.007 -0.004 0.009 -1.113
103 3 1.960 4.014 20.727 0.000 0.000 0.000 -1.193
104 3 5.058 5.763 20.991 0.000 0.000 0.000 -1.202
105 3 1.709 4.016 29.866 -0.010 0.004 -0.002 -1.116
106 3 5.422 6.087 30.083 0.002 0.003 0.010 -1.188
107 3 2.408 4.392 39.341 0.000 -0.001 -0.005 -1.052
108 3 4.540 5.861 39.749 -0.002 -0.000 -0.005 -1.037
112 1 3.236 6.075 25.701 0.002 0.001 0.000 2.310
114 1 3.386 5.752 35.317 -0.002 -0.006 -0.001 2.262
117 1 2.318 4.192 22.697 0.002 0.002 -0.002 2.229
118 1 5.457 5.578 23.087 0.001 -0.001 -0.001 2.114
119 1 1.837 3.820 32.111 -0.003 -0.003 -0.001 2.111
120 1 5.158 5.863 32.109 0.001 -0.002 -0.008 2.142
121 2 1.845 3.645 41.780 0.003 -0.005 -0.001 1.690
122 1 5.462 5.792 41.638 -0.001 0.004 -0.007 2.243
125 1 1.243 5.880 19.517 0.000 0.000 0.000 2.104
126 1 4.463 3.941 19.823 0.000 0.000 0.000 2.142
127 1 0.896 6.075 29.337 -0.001 -0.000 -0.003 2.191
128 1 4.013 4.236 29.232 -0.005 0.001 0.010 2.282
129 1 1.179 5.692 38.443 0.002 0.003 0.002 2.352
130 1 4.267 3.996 38.643 -0.002 0.008 -0.006 2.305
134 3 9.828 2.071 19.444 0.000 0.000 0.000 -1.069
136 3 9.282 1.217 29.062 0.010 -0.002 0.007 -1.147
138 3 9.203 1.614 37.785 0.002 -0.001 0.002 -1.117
141 3 7.110 1.265 22.024 0.012 0.005 0.008 -1.174
143 3 6.873 3.081 32.294 -0.007 0.015 -0.002 -0.886
144 3 11.382 1.253 30.531 -0.000 -0.001 0.004 -1.046
145 3 7.059 2.641 41.155 -0.005 -0.003 0.012 -1.062
150 3 11.504 2.004 25.754 0.009 0.009 -0.004 -1.217
152 3 11.666 2.356 34.837 0.013 -0.005 -0.005 -1.299
156 3 9.438 2.041 23.548 0.015 0.007 0.002 -1.284
157 3 7.875 2.465 27.115 -0.001 0.006 0.006 -1.101
159 3 7.369 2.318 36.306 0.007 0.005 -0.001 -0.989
162 3 9.237 2.155 42.351 -0.004 -0.001 -0.001 -1.176
168 3 9.750 2.241 32.942 -0.002 0.003 0.001 -1.081
169 3 8.337 0.112 19.404 0.000 0.000 0.000 -1.137
170 3 11.991 2.067 20.912 0.000 0.000 0.000 -1.027
173 3 11.274 2.146 39.025 -0.006 0.012 -0.001 -1.117
177 1 9.560 1.692 25.778 -0.000 -0.001 -0.003 2.218
179 1 9.698 2.113 35.801 -0.001 -0.001 -0.003 2.270
183 1 11.511 1.930 23.092 0.004 0.004 0.002 2.124
185 1 11.822 2.003 32.599 0.002 -0.006 -0.004 2.200
187 2 11.744 1.875 42.363 0.005 0.000 0.007 1.606
190 1 7.618 2.008 20.016 0.000 0.000 0.000 2.172
192 1 7.347 1.714 29.063 0.005 -0.000 -0.003 2.211
194 1 7.288 2.364 38.808 0.003 -0.002 0.002 2.126
198 3 6.608 4.036 19.356 0.000 0.000 0.000 -1.063
199 3 9.667 5.592 19.337 0.000 0.000 0.000 -1.155
200 3 6.050 4.373 28.155 -0.007 0.012 -0.012 -1.055
201 3 8.715 5.776 27.877 0.012 0.010 0.004 -1.072
202 3 6.408 4.091 37.763 0.006 -0.003 -0.001 -1.082
203 3 10.194 5.954 37.736 -0.003 -0.008 -0.008 -1.151
206 3 7.508 5.785 22.263 -0.003 0.006 -0.006 -1.223
207 3 11.055 3.889 22.294 0.005 -0.006 -0.016 -1.211
208 3 8.188 5.949 31.098 0.012 0.001 0.000 -1.185
209 3 10.296 4.331 31.559 -0.003 -0.003 0.010 -1.019
210 3 7.385 5.676 40.886 -0.010 0.001 -0.013 -1.247
211 3 10.313 5.021 40.899 -0.012 0.007 -0.002 -1.275
214 3 8.674 3.525 25.342 0.003 0.005 0.001 -1.221
215 3 11.497 5.481 24.991 0.005 0.008 -0.003 -1.136
216 3 8.638 3.890 35.043 0.015 0.004 -0.006 -1.278
217 3 12.402 4.009 32.941 0.006 -0.007 -0.015 -0.999
220 3 6.427 3.665 23.399 0.002 -0.003 0.011 -1.162
221 3 9.391 5.488 23.832 0.009 0.003 0.017 -1.237
222 3 7.587 5.738 25.437 0.021 -0.001 -0.007 -1.187
223 3 11.040 4.262 27.276 0.000 -0.006 -0.008 -1.075
224 3 7.906 6.078 36.737 -0.013 -0.002 -0.019 -1.084
225 3 10.796 3.858 36.687 -0.002 0.008 0.013 -1.160
226 3 5.769 4.628 43.437 -0.000 0.005 0.002 -0.922
227 3 9.156 5.852 42.701 -0.010 0.009 0.006 -1.084
231 3 6.000 4.223 33.418 -0.000 0.004 -0.001 -1.050
232 3 8.638 6.018 33.865 0.000 0.007 -0.003 -1.133
233 3 8.427 3.647 20.952 0.000 0.000 0.000 -1.340
234 3 11.762 5.978 20.872 0.000 0.000 0.000 -1.114
235 3 7.954 3.503 29.940 0.006 -0.003 -0.007 -0.984
236 3 12.022 5.957 30.192 -0.008 0.003 -0.001 -1.051
237 3 8.669 3.951 39.242 0.002 0.000 0.003 -1.490
238 3 12.428 7.991 38.559 0.003 0.002 0.006 -1.016
241 1 6.678 3.989 26.082 -0.000 -0.003 -0.004 2.217
242 1 9.677 5.247 25.958 0.000 0.001 -0.003 2.291
243 1 6.477 3.847 35.389 -0.007 -0.003 -0.002 2.237
244 1 9.745 5.590 35.663 0.002 -0.000 0.003 2.275
247 1 8.396 3.772 23.000 0.006 -0.002 0.000 2.240
248 1 11.299 5.773 22.934 0.004 -0.005 -0.003 2.267
249 1 8.728 4.115 32.818 0.002 -0.001 -0.003 2.099
250 1 11.815 5.948 32.229 -0.000 -0.001 0.000 2.240
251 1 8.695 4.069 41.489 -0.003 -0.004 -0.002 2.253
252 1 11.872 5.750 41.471 -0.004 0.006 0.002 2.298
255 1 7.677 5.633 20.123 0.000 0.000 0.000 2.139
256 1 10.605 3.818 20.133 0.000 0.000 0.000 2.170
257 1 7.354 5.610 29.373 0.005 0.005 0.000 2.298
258 2 10.402 3.280 29.419 0.005 0.000 -0.003 1.736
259 1 7.646 5.684 38.697 -0.004 -0.002 0.002 2.322
260 1 10.578 3.999 38.787 -0.005 0.002 -0.006 2.311
263 3 12.537 0.171 19.265 0.000 0.000 0.000 -0.994
264 3 17.790 2.402 19.135 0.000 0.000 0.000 -1.157
265 3 12.881 0.189 28.494 -0.002 -0.005 -0.004 -1.203
266 3 16.440 1.989 28.616 0.014 -0.006 -0.006 -1.280
270 3 14.530 1.620 21.890 0.011 -0.004 0.001 -1.136
272 3 13.900 2.186 32.292 0.011 -0.002 -0.003 -1.110
274 3 14.916 2.076 41.352 -0.002 0.005 -0.005 -0.912
279 3 18.287 2.185 25.532 0.001 0.010 0.011 -0.993
281 3 18.138 1.861 35.458 0.004 -0.001 0.000 -1.035
285 3 16.806 2.548 24.338 -0.011 0.007 0.006 -1.024
286 3 14.312 2.136 26.902 -0.003 -0.001 -0.009 -1.396
288 3 13.933 1.907 35.807 0.002 0.003 0.006 -1.095
291 3 16.350 2.104 42.560 0.008 -0.003 0.010 -0.949
297 3 16.753 2.816 33.394 0.009 0.003 0.001 -1.067
298 3 15.041 0.456 19.380 0.000 0.000 0.000 -1.167
299 3 17.771 1.182 21.423 0.000 0.000 0.000 -0.885
301 3 18.372 2.468 30.062 0.005 -0.002 -0.000 -1.260
303 3 18.098 2.023 38.919 -0.006 -0.005 -0.004 -1.137
307 1 16.271 1.897 26.394 0.000 -0.006 0.005 2.285
309 1 16.105 1.841 35.345 -0.000 -0.002 -0.006 2.172
313 1 18.310 2.479 23.112 -0.004 -0.006 -0.002 2.087
315 1 18.443 2.148 32.157 -0.001 -0.001 0.001 2.144
317 1 17.884 2.188 41.164 0.001 0.007 -0.003 2.236
320 1 13.752 1.988 19.922 0.000 0.000 0.000 2.176
321 1 17.064 0.459 19.618 0.000 0.000 0.000 2.148
322 1 14.268 1.924 28.967 -0.001 0.004 -0.004 2.256
324 2 13.681 1.966 38.365 0.002 0.002 0.002 1.652
328 3 12.549 3.936 19.387 0.000 0.000 0.000 -1.062
329 3 15.921 6.204 19.412 0.000 0.000 0.000 -1.082
330 3 12.672 3.223 28.589 -0.016 0.011 -0.009 -1.077
331 3 15.856 5.166 28.541 0.003 0.008 0.004 -1.137
332 3 12.046 5.097 39.130 -0.006 0.003 0.007 -1.210
333 3 16.205 5.970 37.627 0.005 -0.005 0.005 -1.070
336 3 14.462 5.402 21.633 -0.009 0.001 0.000 -0.959
337 3 17.537 4.389 21.776 0.004 -0.010 0.002 -1.239
338 3 14.399 7.335 29.562 0.006 -0.003 -0.013 -0.887
339 3 17.220 4.386 31.395 -0.002 -0.006 -0.007 -1.347
340 3 14.732 5.632 40.524 -0.000 -0.002 0.012 -1.326
341 3 16.681 3.840 40.373 0.002 -0.001 -0.014 -1.242
344 3 17.930 6.392 25.340 0.008 -0.001 0.008 -1.058
345 3 14.967 4.180 34.527 -0.008 -0.010 -0.005 -1.210
346 3 18.067 5.566 34.818 -0.001 0.004 0.004 -1.100
349 3 12.630 3.230 24.385 0.002 0.005 -0.013 -1.012
350 3 15.931 5.811 23.895 -0.003 -0.001 0.001 -1.080
351 3 14.340 4.935 26.233 0.017 -0.009 -0.006 -1.024
352 3 17.034 4.012 26.449 -0.001 0.001 0.003 -1.155
353 3 13.652 5.345 36.530 0.011 -0.005 0.003 -1.121
354 3 16.292 3.634 36.612 -0.007 -0.018 -0.008 -1.001
355 3 12.884 3.971 41.995 0.003 0.006 -0.003 -1.134
356 3 16.476 5.401 42.634 -0.006 0.000 -0.012 -1.146
361 3 13.775 5.229 31.316 -0.008 -0.001 0.004 -0.990
362 3 16.107 5.894 33.264 0.010 -0.001 -0.005 -1.246
363 3 15.037 3.722 19.639 0.000 0.000 0.000 -1.125
364 3 18.493 5.606 19.488 0.000 0.000 0.000 -1.117
365 3 14.881 3.422 30.051 0.010 0.014 -0.006 -1.220
366 3 18.690 6.537 30.427 0.007 -0.003 0.006 -1.000
367 3 14.956 3.806 38.454 -0.003 -0.017 0.009 -0.898
368 3 18.408 5.543 39.355 0.014 0.003 -0.009 -1.090
371 1 12.775 3.672 26.418 0.001 0.001 0.001 2.309
372 1 16.028 5.768 26.211 0.002 -0.002 -0.002 2.374
373 1 12.886 3.866 35.231 -0.001 -0.003 0.004 2.192
374 1 15.986 5.560 35.408 0.003 -0.003 0.003 2.252
377 2 14.765 3.663 23.235 0.004 0.005 -0.003 1.612
378 1 18.151 5.664 23.200 0.004 0.008 0.002 2.252
379 1 15.205 3.960 32.391 -0.002 0.000 -0.004 2.179
380 1 18.286 5.590 32.489 -0.002 0.003 -0.001 2.386
381 1 15.056 4.126 41.728 -0.000 -0.000 0.001 2.328
382 1 18.003 5.854 41.401 0.002 -0.006 0.002 2.242
385 1 13.797 5.702 19.676 0.000 0.000 0.000 2.154
386 1 17.074 4.184 19.822 0.000 0.000 0.000 2.116
387 1 13.857 5.395 29.286 0.005 0.002 0.001 2.274
388 1 17.007 3.917 29.509 0.004 0.003 -0.002 2.330
389 1 14.026 5.844 38.580 0.006 -0.007 0.002 2.204
390 1 17.154 4.200 38.484 -0.003 -0.001 0.001 2.352
394 3 22.553 2.319 19.102 0.000 0.000 0.000 -0.974
396 3 22.635 1.762 28.475 -0.004 -0.002 -0.000 -1.043
398 3 22.542 2.220 37.834 0.014 -0.001 -0.017 -1.095
401 3 20.532 2.448 22.795 -0.003 0.010 0.003 -1.132
403 3 20.738 2.137 31.631 0.005 -0.003 0.021 -1.196
405 3 20.140 2.239 40.424 0.004 -0.010 -0.000 -1.161
410 3 24.610 1.897 25.410 0.007 -0.009 0.009 -1.097
412 3 24.603 2.300 35.052 0.000 -0.004 0.005 -1.040
416 3 22.740 2.005 24.130 0.009 0.015 -0.008 -1.006
417 3 20.421 2.433 26.993 -0.007 -0.008 0.006 -1.138
419 3 20.707 2.002 36.192 -0.010 -0.002 0.006 -1.189
422 3 22.283 2.043 41.948 -0.017 0.006 -0.004 -1.285
428 3 23.046 2.504 33.191 -0.005 0.000 -0.006 -1.162
429 3 21.127 0.328 20.740 0.000 0.000 0.000 -1.090
430 3 23.310 2.533 21.443 0.001 0.004 0.018 -1.036
432 3 24.485 2.406 30.142 -0.003 0.016 -0.015 -1.237
434 3 24.290 3.061 39.608 -0.005 -0.003 0.005 -0.871
438 1 22.445 1.931 26.255 -0.000 -0.003 0.001 2.307
440 1 22.578 2.057 35.298 -0.000 0.005 0.003 2.302
443 1 21.402 0.499 22.793 -0.002 -0.002 -0.002 2.205
444 1 24.650 2.015 23.099 0.002 0.001 0.006 2.188
446 1 24.660 2.208 31.915 -0.002 0.002 0.004 2.371
448 1 24.531 2.379 41.540 -0.003 0.001 0.004 2.404
451 2 20.178 2.057 19.185 0.000 0.000 0.000 1.649
452 1 23.654 0.697 20.057 0.000 0.000 0.000 2.116
453 1 20.192 1.983 29.054 0.003 -0.005 0.001 2.116
455 1 20.049 2.213 38.341 -0.001 -0.006 0.002 2.297
459 3 22.396 6.231 19.569 0.000 0.000 0.000 -1.065
460 3 18.537 4.801 28.312 0.005 0.001 -0.004 -1.069
461 3 22.260 5.699 28.277 -0.011 -0.003 -0.013 -1.121
462 3 18.944 3.837 37.529 0.005 -0.000 0.001 -1.150
463 3 22.942 6.008 37.827 0.000 0.017 -0.002 -1.172
466 3 20.132 5.517 22.141 -0.009 0.000 -0.000 -1.076
467 3 23.010 4.856 21.997 -0.004 0.007 0.003 -1.092
468 3 20.672 5.179 31.282 0.001 0.002 0.002 -1.136
469 3 23.429 4.232 31.583 0.002 0.006 -0.003 -1.327
470 3 20.520 5.650 40.591 0.001 0.012 -0.007 -1.088
471 3 23.264 4.353 40.979 -0.001 0.006 0.013 -1.088
474 3 22.241 3.859 25.361 -0.025 -0.003 0.007 -1.069
475 3 24.663 5.600 25.489 -0.024 0.008 -0.002 -1.211
476 3 21.322 4.094 34.515 0.010 0.001 0.003 -1.264
477 3 25.561 5.702 34.548 -0.005 -0.016 0.005 -1.060
480 3 19.351 4.478 24.135 -0.001 0.010 0.004 -1.293
481 3 22.449 6.187 23.882 0.004 -0.005 -0.006 -1.161
482 3 20.235 5.686 26.582 -0.005 -0.005 -0.000 -1.140
483 3 23.627 3.509 27.296 0.009 -0.001 -0.016 -1.014
484 3 20.308 5.685 36.209 -0.001 -0.003 0.000 -1.139
485 3 23.139 4.146 36.106 0.001 -0.002 0.000 -1.132
486 3 19.208 3.918 41.948 -0.002 -0.010 -0.001 -0.922
487 3 22.770 6.554 42.656 0.007 0.007 -0.011 -1.148
492 3 19.228 3.695 33.376 -0.001 -0.007 -0.005 -1.178
493 3 22.918 6.332 33.351 -0.006 0.006 -0.006 -1.233
494 3 21.183 4.279 19.663 0.000 0.000 0.000 -1.011
495 3 24.817 5.508 20.070 0.000 0.000 0.000 -1.133
496 3 21.326 3.895 29.254 -0.001 -0.006 -0.011 -1.017
497 3 24.421 6.065 29.538 -0.004 -0.012 -0.007 -1.184
498 3 21.317 4.139 38.765 -0.002 -0.019 0.006 -1.050
499 3 25.005 6.531 39.632 0.005 -0.013 0.001 -1.168
502 1 19.072 4.026 26.265 -0.004 0.006 0.004 2.250
503 1 22.582 5.875 26.253 0.002 0.003 0.004 2.230
504 1 19.524 3.712 35.421 -0.001 0.002 -0.002 2.260
505 1 22.328 5.888 35.256 -0.001 -0.003 -0.002 2.308
508 1 21.483 4.266 23.333 0.003 -0.002 0.002 2.184
509 1 24.504 5.684 23.236 0.002 -0.002 -0.003 2.061
510 1 21.641 3.801 32.520 -0.003 0.002 -0.000 2.221
511 1 24.591 5.775 32.314 -0.000 -0.008 0.003 2.217
512 1 21.348 3.729 41.374 0.001 -0.003 0.001 2.303
513 1 24.647 5.947 41.614 0.003 -0.002 -0.002 2.231
516 1 20.403 6.034 20.157 0.000 0.000 0.000 2.339
517 1 23.352 3.966 19.998 0.000 0.000 0.000 2.309
518 1 20.385 5.910 29.162 0.001 -0.001 -0.002 2.210
519 1 23.386 3.969 29.357 0.000 0.001 0.001 2.295
520 1 20.420 6.124 38.345 0.005 -0.001 0.001 2.209
521 1 23.370 4.154 38.152 0.003 -0.001 -0.002 2.317
524 3 25.592 0.122 19.242 0.000 0.000 0.000 -1.103
589 3 24.997 2.634 19.510 0.000 0.000 0.000 -1.046
2080 3 0.080 7.586 18.848 0.000 0.000 0.000 -1.100
2081 3 2.664 8.225 19.641 0.000 0.000 0.000 -0.971
2083 3 4.276 10.841 27.410 -0.000 -0.004 0.005 -1.026
2085 3 3.064 9.247 37.710 -0.007 -0.000 -0.002 -1.158
2088 3 1.240 9.644 21.878 -0.000 0.002 -0.002 -1.155
2089 3 4.673 8.593 21.797 -0.001 0.003 -0.001 -1.136
2090 3 1.164 10.831 30.545 -0.006 0.001 -0.009 -0.972
2091 3 3.989 7.655 31.562 -0.004 -0.003 0.001 -1.073
2092 3 0.851 9.830 40.416 -0.010 -0.008 0.013 -1.114
2093 3 4.342 7.631 41.545 -0.004 -0.007 -0.004 -1.060
2096 3 2.442 7.769 25.128 0.013 -0.001 -0.002 -1.132
2097 3 4.889 9.688 25.292 -0.012 -0.013 -0.002 -1.060
2098 3 2.202 7.621 34.895 -0.008 0.000 0.003 -0.963
2099 3 4.858 10.446 34.725 -0.002 0.001 0.014 -1.006
2103 3 3.326 9.831 23.529 0.006 -0.008 0.010 -1.185
2104 3 1.000 9.671 26.554 -0.011 -0.010 -0.011 -1.177
2105 3 4.847 7.304 26.522 -0.007 0.011 -0.008 -1.050
2106 3 0.848 9.397 36.190 0.008 -0.003 0.004 -1.059
2107 3 4.451 7.923 35.224 -0.003 -0.002 -0.001 -1.063
2109 3 2.916 9.427 42.615 -0.001 -0.008 -0.001 -1.172
2115 3 2.765 9.620 32.407 -0.014 0.003 -0.005 -0.969
2116 3 1.883 7.109 20.988 0.000 0.000 0.000 -1.031
2117 3 5.332 9.411 19.736 0.000 0.000 0.000 -1.029
2118 3 2.839 8.900 28.209 -0.006 0.012 -0.005 -1.240
2119 3 5.409 9.884 29.482 -0.006 -0.010 -0.018 -1.230
2120 3 2.433 8.121 39.726 -0.005 0.001 0.008 -0.963
2121 3 5.270 9.193 39.240 0.014 -0.007 0.008 -1.190
2125 1 3.061 9.744 26.267 -0.004 0.000 -0.003 2.258
2127 1 3.153 9.351 35.580 -0.001 -0.006 -0.001 2.246
2130 1 2.514 7.865 22.828 0.001 -0.003 0.000 2.170
2131 1 5.465 9.473 23.304 -0.001 0.001 0.003 2.253
2132 1 2.092 7.526 32.176 -0.005 -0.001 -0.004 2.126
2133 2 5.262 9.483 32.609 0.004 0.000 -0.002 1.715
2134 1 2.058 7.715 41.802 0.003 -0.002 0.002 2.238
2135 1 5.348 9.444 41.769 -0.004 0.001 0.008 2.283
2138 1 0.977 9.496 19.852 0.000 0.000 0.000 2.201
2139 1 4.366 7.432 20.081 0.000 0.000 0.000 2.292
2140 1 0.884 9.560 28.829 0.006 0.002 0.002 2.313
2141 1 4.388 7.947 28.911 -0.006 0.002 0.004 2.100
2142 1 0.957 9.530 38.468 -0.004 0.002 -0.003 2.355
2143 1 4.109 7.576 38.552 -0.005 0.000 -0.004 2.245
2146 3 0.022 11.240 19.029 0.000 0.000 0.000 -1.046
2147 3 3.170 13.236 19.491 0.000 0.000 0.000 -1.020
2149 3 4.300 13.320 28.293 0.003 0.010 0.003 -1.122
2151 3 2.910 13.038 37.823 -0.008 -0.002 -0.008 -1.168
2154 3 1.215 12.657 22.046 0.008 0.007 0.003 -1.140
2155 3 3.954 11.541 21.955 0.013 0.004 0.005 -1.164
2156 3 0.992 13.457 31.548 0.000 -0.004 -0.012 -1.214
2157 3 3.909 11.801 31.235 0.003 -0.005 -0.002 -1.075
2158 3 0.716 12.569 40.693 -0.007 0.013 -0.013 -1.136
2159 3 4.144 10.744 40.810 -0.005 -0.001 0.002 -1.174
2162 3 1.883 11.408 25.511 -0.003 0.006 0.003 -1.059
2163 3 5.611 13.254 24.982 0.015 -0.001 0.001 -1.074
2164 3 2.348 11.035 34.534 0.005 0.009 0.009 -1.117
2165 3 4.851 13.588 34.913 -0.000 -0.003 -0.020 -1.081
2169 3 2.978 13.182 23.791 -0.003 -0.000 -0.012 -1.104
2171 3 0.727 12.910 36.489 0.010 0.005 0.002 -1.036
2172 3 4.419 11.254 36.754 -0.003 -0.008 0.003 -1.104
2174 3 3.074 13.283 41.579 -0.002 -0.004 -0.007 -1.140
2180 3 3.064 13.153 32.954 -0.010 -0.006 -0.019 -1.269
2181 3 2.388 10.949 19.611 0.000 0.000 0.000 -1.048
2182 3 5.581 12.872 19.891 0.000 0.000 0.000 -1.184
2183 3 2.197 11.778 29.232 0.008 -0.002 -0.012 -0.937
2184 3 5.664 13.401 30.352 -0.000 0.008 -0.005 -1.204
2185 3 2.075 11.051 38.722 -0.004 -0.001 -0.003 -1.175
2186 3 5.179 12.839 39.522 -0.003 -0.013 0.013 -1.170
2190 2 2.741 13.534 26.305 0.001 -0.004 0.002 1.690
2192 1 3.042 12.813 35.858 0.000 -0.002 0.001 2.161
2195 1 2.077 11.267 23.209 -0.000 -0.005 -0.007 2.325
2196 1 5.020 13.069 23.034 -0.003 0.004 -0.002 2.170
2197 1 1.954 11.493 32.337 0.003 -0.001 -0.001 2.285
2198 1 5.119 13.210 32.707 -0.000 0.005 -0.003 2.218
2199 1 2.286 11.302 41.624 -0.001 0.007 -0.004 2.236
2200 1 5.261 13.290 41.599 0.004 0.001 0.001 2.243
2203 1 1.045 12.961 19.923 0.000 0.000 0.000 2.104
2204 1 4.396 11.329 20.041 0.000 0.000 0.000 2.180
2205 1 0.793 13.062 29.432 0.001 0.002 -0.001 2.347
2206 1 4.420 11.702 29.398 0.003 0.000 -0.001 2.273
2207 1 0.991 13.205 38.771 -0.002 0.005 -0.004 2.275
2208 1 4.095 11.224 38.695 0.005 0.005 -0.003 2.367
2211 3 6.518 7.309 19.536 0.000 0.000 0.000 -1.084
2212 3 9.572 9.336 18.992 0.000 0.000 0.000 -1.104
2213 3 6.266 7.101 28.052 0.001 0.000 0.000 -0.991
2214 3 10.004 9.455 27.937 0.015 0.005 -0.017 -0.972
2215 3 5.987 6.681 38.464 -0.020 -0.006 -0.006 -1.014
2216 3 9.579 9.629 37.779 -0.006 0.003 -0.006 -1.221
2219 3 7.484 9.337 22.256 0.010 0.012 0.003 -1.032
2220 3 10.629 7.650 22.918 -0.001 0.006 -0.004 -1.269
2221 3 7.495 9.150 31.653 0.004 -0.008 -0.005 -1.179
2222 3 10.400 7.683 32.433 -0.008 -0.010 -0.006 -1.162
2223 3 7.801 9.493 41.365 -0.010 0.007 -0.016 -1.152
2224 3 10.402 7.621 40.590 0.005 -0.004 0.004 -1.191
2227 3 8.082 8.499 24.897 0.009 -0.002 -0.002 -1.173
2228 3 12.389 9.208 25.890 0.001 -0.002 -0.000 -1.115
2229 3 8.282 8.257 34.567 0.004 0.002 -0.008 -1.191
2230 3 11.494 9.536 35.235 -0.005 -0.003 -0.011 -1.029
2233 3 5.928 7.573 24.032 -0.000 -0.002 0.007 -1.176
2234 3 10.390 9.887 23.997 -0.002 -0.010 0.003 -1.053
2235 3 7.318 9.361 27.280 -0.015 -0.009 -0.001 -0.972
2236 3 10.316 7.256 26.200 -0.020 0.002 0.018 -1.158
2237 3 6.852 8.751 36.568 0.002 0.011 -0.014 -1.204
2238 3 9.990 7.730 36.081 -0.003 0.000 -0.001 -1.090
2239 3 6.679 7.633 42.608 0.006 -0.002 0.015 -1.194
2240 3 10.062 9.111 42.709 -0.003 0.002 0.001 -1.163
2245 3 6.178 7.181 33.242 0.003 -0.007 0.001 -1.153
2246 3 9.725 10.474 33.495 -0.009 -0.000 0.004 -1.045
2247 3 8.949 7.610 20.784 0.000 0.000 0.000 -1.185
2248 3 12.070 8.837 20.735 0.000 0.000 0.000 -1.135
2249 3 8.367 7.712 29.374 -0.001 0.002 -0.003 -1.027
2250 3 8.377 7.582 39.192 -0.015 -0.003 -0.005 -1.322
2251 3 11.651 9.669 39.420 0.012 0.000 -0.005 -1.051
2254 1 6.703 7.517 26.035 -0.004 -0.002 0.002 2.309
2255 1 9.897 9.454 25.824 -0.002 0.004 -0.002 2.219
2256 1 6.575 7.318 35.347 0.001 -0.002 0.003 2.320
2257 1 9.450 9.361 35.495 0.004 -0.003 0.001 2.432
2260 1 8.631 7.441 23.119 0.001 0.000 0.002 2.150
2261 1 11.890 9.456 22.595 -0.009 0.001 -0.003 2.333
2262 1 8.480 7.610 32.373 0.004 0.001 0.002 2.202
2263 2 11.701 9.673 32.115 0.002 -0.001 -0.003 1.613
2264 1 8.650 7.653 41.560 0.005 0.003 0.004 2.236
2265 1 11.745 9.456 41.565 -0.002 0.002 -0.005 2.174
2268 1 7.585 9.207 19.958 0.000 0.000 0.000 2.098
2269 1 10.717 7.534 19.765 0.000 0.000 0.000 2.132
2270 1 7.463 9.455 29.344 0.001 0.002 -0.001 2.345
2271 2 10.433 7.286 28.704 0.001 -0.000 0.002 1.667
2272 1 7.202 9.241 38.616 -0.005 -0.001 0.001 2.118
2273 1 10.373 7.708 38.616 -0.001 0.001 -0.006 2.317
2276 3 7.643 11.249 20.014 0.000 0.000 0.000 -0.900
2277 3 11.348 13.113 19.059 0.000 0.000 0.000 -1.026
2278 3 7.529 11.362 29.081 -0.007 0.005 -0.009 -1.089
2279 3 9.478 13.158 28.100 -0.003 -0.010 0.016 -1.177
2280 3 6.359 11.289 37.816 0.013 -0.009 0.009 -1.176
2281 3 8.756 13.363 37.392 0.000 -0.003 -0.006 -1.064
2284 3 8.196 13.611 21.727 0.001 0.003 0.018 -1.082
2285 3 10.686 10.503 21.366 0.000 0.000 0.000 -1.042
2286 3 6.478 11.620 32.464 -0.001 0.002 -0.005 -1.091
2287 3 9.046 10.299 30.287 0.004 -0.001 -0.011 -1.121
2288 3 7.403 13.432 40.794 -0.006 -0.009 0.014 -1.255
2289 3 10.435 11.201 40.569 0.006 0.008 0.013 -1.029
2292 3 8.811 11.278 25.674 -0.016 -0.007 0.015 -1.012
2293 3 12.221 12.844 25.466 -0.010 -0.004 -0.002 -1.113
2294 3 8.500 11.229 35.461 0.007 0.004 0.010 -1.166
2295 3 11.746 13.159 34.475 -0.000 -0.004 -0.000 -1.110
2298 3 6.259 11.554 23.126 0.008 -0.006 -0.007 -1.061
2299 3 10.001 13.430 23.851 -0.004 0.002 0.006 -1.136
2300 3 7.760 13.404 26.804 0.010 0.004 -0.009 -1.040
2301 3 10.894 11.387 27.002 0.003 0.005 -0.007 -1.173
2302 3 6.432 13.261 36.359 -0.002 0.006 -0.002 -0.986
2303 3 10.711 11.730 36.381 -0.014 0.005 0.007 -1.147
2304 3 6.298 11.283 41.956 -0.005 -0.013 -0.007 -1.237
2305 3 9.134 13.381 42.212 -0.010 0.001 0.004 -1.152
2310 3 11.115 12.243 30.789 0.008 0.006 0.006 -1.015
2311 3 8.887 11.933 18.888 0.000 0.000 0.000 -0.841
2312 3 11.404 13.368 21.411 0.000 0.000 0.000 -0.968
2313 3 8.696 13.302 31.058 -0.008 0.011 0.011 -1.011
2314 3 12.203 12.813 29.297 0.014 0.001 0.007 -0.966
2315 3 8.204 11.290 39.369 -0.011 -0.005 0.010 -1.194
2316 3 10.607 13.194 39.186 0.016 -0.015 -0.007 -1.043
2318 2 6.449 11.318 26.298 0.003 0.003 -0.002 1.737
2319 1 9.597 13.123 26.093 -0.001 -0.003 0.001 2.296
2320 1 6.435 11.189 35.903 -0.003 -0.005 0.007 2.172
2321 1 9.578 13.144 35.393 0.000 0.003 -0.002 2.302
2324 2 8.787 11.440 22.717 -0.001 -0.003 -0.001 1.729
2325 1 12.021 13.259 23.372 0.002 -0.001 0.005 2.358
2326 1 8.477 11.325 32.178 0.002 -0.002 0.005 2.100
2327 1 12.285 13.144 32.168 0.002 -0.005 0.001 2.112
2328 1 8.241 11.476 41.461 0.003 -0.001 -0.001 2.244
2329 2 11.562 13.102 41.447 0.000 -0.001 -0.000 1.677
2332 1 7.668 13.405 19.823 0.000 0.000 0.000 2.191
2333 1 10.750 11.063 19.356 0.000 0.000 0.000 2.099
2334 1 7.542 13.413 29.199 -0.006 0.001 -0.001 2.162
2335 1 10.639 11.293 29.030 0.005 -0.004 -0.008 2.241
2336 1 7.220 12.939 38.764 -0.002 -0.002 -0.001 2.352
2337 1 10.530 11.187 38.502 -0.004 0.002 -0.003 2.351
2340 3 12.823 7.387 18.914 0.000 0.000 0.000 -1.110
2341 3 16.304 9.456 19.283 0.000 0.000 0.000 -1.094
2342 3 13.240 5.855 27.246 0.008 -0.008 -0.003 -0.946
2343 3 16.185 9.936 29.092 0.003 -0.009 0.002 -1.185
2344 3 11.547 5.413 34.529 0.000 -0.004 -0.004 -1.098
2345 3 16.253 9.999 37.727 -0.007 0.013 0.012 -1.218
2348 3 13.750 8.896 23.186 -0.008 0.004 0.003 -1.096
2349 3 17.972 7.045 21.772 -0.004 0.007 0.003 -0.898
2350 3 13.719 8.484 31.331 -0.013 -0.001 0.013 -0.952
2351 3 18.179 7.502 32.508 0.012 -0.005 -0.000 -1.025
2352 3 13.942 9.380 40.788 0.003 -0.008 -0.007 -1.187
2353 3 16.672 7.351 40.293 0.001 0.002 0.005 -1.186
2356 3 14.592 7.498 25.893 0.006 0.001 0.004 -1.037
2357 3 16.699 9.753 24.398 -0.001 -0.003 0.005 -1.000
2358 3 15.246 7.597 35.222 -0.004 -0.006 -0.003 -0.966
2359 3 18.638 9.316 34.454 0.016 0.001 -0.008 -1.007
2362 3 13.261 6.584 23.475 0.006 0.000 -0.006 -1.020
2363 3 16.813 8.097 22.584 -0.000 0.011 0.004 -0.918
2364 3 14.316 9.841 27.579 -0.001 -0.003 0.001 -1.164
2365 3 16.816 7.457 27.201 -0.000 0.004 0.004 -1.129
2366 3 14.009 9.680 36.209 0.005 -0.003 -0.000 -1.065
2367 3 17.390 8.126 35.987 -0.003 0.012 0.002 -1.021
2368 3 12.880 7.456 41.663 0.007 -0.004 -0.006 -1.210
2369 3 16.252 8.962 42.692 -0.004 0.001 0.006 -1.223
2374 3 13.140 7.130 33.215 -0.020 -0.007 0.007 -1.061
2375 3 15.622 9.248 33.464 -0.005 0.001 -0.006 -0.953
2376 3 14.852 7.894 20.624 0.000 0.000 0.000 -1.147
2377 3 18.307 9.701 20.947 0.000 0.000 0.000 -1.071
2378 3 15.830 7.166 30.728 -0.000 0.004 -0.003 -0.881
2379 3 18.203 9.645 30.147 0.002 -0.000 0.004 -1.310
2380 3 14.723 7.689 38.237 -0.003 0.004 0.003 -1.120
2381 3 18.112 9.548 39.524 -0.009 -0.008 -0.001 -1.267
2384 1 12.655 7.278 25.727 -0.000 -0.001 0.002 2.162
2385 1 15.985 9.336 26.269 -0.004 -0.005 -0.003 2.217
2386 2 12.896 7.600 35.713 -0.001 -0.001 0.001 1.707
2387 1 15.913 9.773 35.613 0.004 -0.003 0.002 2.343
2390 1 14.972 7.259 22.623 0.002 -0.003 0.004 2.271
2391 1 18.298 9.625 23.132 0.004 0.002 -0.001 2.322
2392 1 15.104 7.501 32.726 0.005 0.004 0.001 2.274
2393 1 18.380 9.447 32.142 0.003 0.004 -0.001 2.280
2394 1 14.986 7.498 41.471 0.001 -0.001 0.000 2.212
2395 1 18.177 9.317 41.737 0.003 0.003 0.004 2.360
2398 1 14.056 9.230 19.403 0.000 0.000 0.000 2.049
2399 1 17.262 7.698 19.899 0.000 0.000 0.000 2.185
2400 1 14.317 9.385 29.563 -0.001 0.001 -0.003 2.294
2401 1 17.278 7.555 29.281 -0.001 0.007 0.001 2.151
2402 1 13.812 9.523 38.624 -0.002 0.001 -0.002 2.248
2403 1 17.126 8.009 38.323 0.003 -0.002 -0.003 2.194
2406 3 12.752 10.831 18.766 0.000 0.000 0.000 -1.092
2407 3 16.058 13.344 19.325 0.000 0.000 0.000 -1.060
2408 3 12.400 10.219 29.099 -0.005 0.002 0.003 -1.129
2409 3 16.347 13.193 28.966 -0.009 0.005 -0.004 -1.053
2410 3 12.639 11.410 37.780 -0.009 -0.004 0.006 -1.133
2411 3 16.014 12.685 37.285 -0.002 0.004 -0.011 -1.100
2414 3 14.041 13.447 22.992 0.003 0.008 -0.004 -1.057
2415 3 17.062 11.523 22.236 -0.004 -0.002 0.002 -1.039
2416 3 14.444 13.262 31.700 0.009 -0.007 0.009 -1.330
2417 3 16.411 10.185 32.037 0.006 0.004 0.005 -0.959
2418 3 13.979 13.079 41.313 -0.010 0.005 -0.003 -1.047
2419 3 16.557 10.859 40.973 0.006 -0.008 0.004 -1.031
2422 3 14.919 11.416 25.651 0.010 0.010 -0.000 -0.973
2423 3 18.248 13.089 25.949 -0.006 -0.011 0.005 -1.050
2424 3 14.887 11.534 34.800 0.013 -0.007 0.001 -1.217
2425 3 18.681 13.118 34.799 -0.000 0.010 0.007 -1.065
2428 3 12.476 11.337 23.325 -0.014 0.012 -0.000 -1.029
2429 3 16.313 13.509 24.313 -0.005 0.002 0.004 -1.207
2430 3 14.009 12.985 27.611 -0.011 -0.010 -0.008 -1.182
2431 3 16.861 11.373 27.132 -0.009 -0.013 -0.002 -1.024
2432 3 13.928 13.689 36.402 0.021 0.009 0.003 -1.130
2433 3 17.205 11.351 35.523 0.012 -0.010 -0.005 -1.142
2434 3 12.662 11.066 42.463 0.000 -0.003 0.012 -1.169
2435 3 16.324 13.141 42.560 -0.004 -0.011 -0.012 -1.104
2440 3 13.037 11.395 33.431 0.000 0.007 0.016 -1.131
2441 3 16.765 13.181 33.456 -0.002 0.001 0.005 -1.217
2442 3 14.975 11.137 19.932 0.000 0.000 0.000 -0.990
2443 3 18.140 13.485 20.932 0.000 0.000 0.000 -1.036
2444 3 14.307 11.483 30.419 -0.010 -0.002 -0.004 -1.042
2445 3 17.779 12.505 30.798 -0.009 -0.008 0.006 -0.923
2446 3 14.614 11.366 39.280 -0.004 0.015 -0.009 -1.190
2447 3 17.718 13.159 39.606 -0.005 0.008 -0.007 -1.251
2450 1 12.940 11.058 26.916 0.002 0.007 -0.003 2.218
2451 1 16.126 13.047 26.142 0.001 -0.005 -0.002 2.336
2452 1 12.518 11.347 35.429 -0.001 -0.001 -0.004 2.244
2453 1 15.976 13.086 35.402 -0.000 0.001 0.002 2.391
2456 2 14.985 11.077 23.115 0.001 -0.001 0.003 1.713
2457 1 18.327 13.112 23.332 -0.004 -0.006 0.003 2.146
2458 1 15.192 11.655 32.654 -0.001 -0.000 0.000 2.164
2459 1 18.460 13.297 32.637 -0.002 0.002 0.000 2.198
2460 1 14.656 11.223 41.697 -0.002 -0.004 0.001 2.241
2461 1 18.143 13.229 41.897 -0.001 -0.002 0.001 2.259
2464 2 13.797 12.979 18.821 0.000 0.000 0.000 1.650
2465 1 17.035 11.422 20.031 0.000 0.000 0.000 2.110
2466 1 14.275 13.292 29.555 0.002 -0.008 -0.002 2.315
2467 1 17.441 11.223 29.199 -0.002 -0.010 -0.001 2.425
2468 1 14.006 13.037 38.317 -0.008 0.002 -0.001 2.198
2469 1 17.058 11.443 38.906 0.003 0.001 -0.003 2.244
2472 3 19.397 7.899 19.465 0.000 0.000 0.000 -1.042
2473 3 22.611 9.435 19.762 0.000 0.000 0.000 -1.004
2474 3 19.268 7.815 28.668 -0.005 -0.001 0.016 -1.198
2475 3 20.810 9.310 27.117 -0.020 0.003 -0.004 -1.073
2476 3 19.062 7.718 37.747 0.006 0.002 0.003 -1.286
2477 3 23.013 9.521 37.520 -0.007 -0.009 0.003 -1.271
2480 3 20.852 10.067 22.073 -0.004 0.008 0.003 -1.190
2481 3 23.373 8.250 22.166 -0.006 0.010 -0.002 -1.159
2482 3 20.430 9.156 31.678 -0.001 -0.002 -0.003 -1.157
2483 3 23.578 7.684 31.584 -0.003 0.003 0.001 -1.085
2484 3 20.348 9.270 40.773 0.013 0.009 0.010 -1.088
2485 3 23.266 7.950 40.530 -0.007 0.002 -0.010 -1.149