ITEM: TIMESTEP
60000
ITEM: NUMBER OF ATOMS
37374
ITEM: BOX BOUNDS pp pp pp
0.000000 102.779942
0.000000 118.660062
0.000000 130.735200
ITEM: ATOMS id type x y z vx vy vz q
2 3 3.194 2.308 19.117 0.000 0.000 0.000 -1.075
4 3 3.061 1.892 29.472 0.007 0.002 -0.018 -1.146
6 3 3.319 1.633 37.417 -0.000 0.012 0.004 -1.079
9 3 1.131 1.596 21.663 0.012 -0.003 0.002 -1.064
11 3 1.283 1.806 31.814 -0.010 0.006 0.006 -1.412
13 3 0.777 1.869 41.397 -0.004 0.001 0.014 -0.966
18 3 5.597 1.872 25.319 -0.003 0.007 0.015 -1.214
20 3 5.216 2.267 35.775 0.013 0.006 0.007 -1.086
24 3 2.935 2.210 23.591 0.012 0.013 -0.010 -1.153
30 3 3.648 2.515 42.662 0.014 0.005 0.001 -0.992
36 3 3.473 2.336 33.340 0.000 -0.007 0.002 -0.956
37 3 1.881 0.228 19.742 0.000 0.000 0.000 -1.166
38 3 5.513 1.819 19.848 0.000 0.000 0.000 -1.060
40 3 5.426 2.217 30.121 0.002 0.013 0.011 -1.226
42 3 4.656 2.114 39.417 0.015 0.018 0.009 -1.136
46 2 2.870 2.053 26.197 -0.007 -0.003 -0.002 1.682
48 1 3.195 1.711 35.454 -0.003 0.004 0.002 2.321
52 1 5.068 2.173 23.107 -0.000 -0.001 -0.000 2.087
54 1 5.289 1.996 32.342 -0.005 0.003 -0.002 2.311
56 1 5.407 1.882 41.525 -0.003 -0.005 0.001 2.182
59 1 1.108 2.215 19.775 0.000 0.000 0.000 2.242
60 1 4.018 0.309 19.738 0.000 0.000 0.000 2.200
61 1 0.968 2.254 29.398 -0.003 -0.003 -0.002 2.246
63 1 0.843 2.069 38.321 -0.001 -0.001 0.001 2.139
67 3 0.086 4.021 19.084 0.000 0.000 0.000 -1.093
68 3 3.421 5.669 19.058 0.000 0.000 0.000 -1.068
70 3 3.225 5.507 28.566 -0.006 -0.023 -0.003 -1.200
72 3 3.279 5.661 38.082 -0.004 0.000 0.001 -1.039
76 3 4.217 3.752 21.862 -0.004 0.005 -0.005 -1.176
77 3 0.760 5.727 31.992 0.000 -0.008 0.001 -1.035
78 3 4.250 3.851 31.337 0.021 -0.004 -0.015 -1.131
80 3 4.508 4.359 40.420 0.013 -0.009 0.003 -1.050
83 3 1.895 4.339 26.260 0.004 -0.018 -0.011 -1.036
84 3 4.975 5.349 25.357 -0.003 0.004 -0.002 -1.206
85 3 2.431 3.767 35.075 0.013 -0.007 0.007 -0.996
86 3 4.313 7.531 36.572 -0.012 -0.004 -0.000 -1.185
89 3 0.759 3.628 24.257 -0.003 0.009 0.005 -0.880
90 3 3.200 5.801 23.299 0.003 -0.001 0.002 -1.169
92 3 4.485 3.644 27.108 0.007 -0.005 0.007 -1.093
94 3 4.831 4.628 36.382 -0.003 -0.008 -0.001 -0.971
96 3 3.483 6.420 42.702 0.007 0.001 0.010 -1.072
102 3 3.237 5.254 33.274 0.004 0.014 -0.006 -1.007
103 3 1.960 4.014 20.727 0.000 0.000 0.000 -1.132
104 3 5.058 5.763 20.991 0.000 0.000 0.000 -1.122
105 3 1.630 4.020 30.283 0.010 -0.001 -0.006 -1.300
106 3 5.583 6.082 30.428 0.008 0.002 -0.000 -1.156
107 3 1.873 3.955 38.801 0.006 -0.006 -0.006 -1.077
108 3 6.698 3.797 38.003 -0.003 -0.017 -0.006 -1.215
112 1 3.417 5.767 26.403 -0.001 -0.000 0.002 2.183
114 1 3.097 5.672 35.340 -0.001 -0.000 -0.001 2.318
117 1 2.196 4.177 22.788 0.002 -0.005 -0.002 2.269
118 1 5.396 5.606 23.104 -0.002 -0.004 -0.002 2.210
119 1 1.963 3.674 32.167 0.004 0.004 -0.001 2.304
120 1 5.222 5.513 32.363 -0.007 -0.007 -0.003 2.295
121 2 2.171 3.760 41.227 0.000 -0.001 0.001 1.635
122 1 5.359 5.713 41.823 0.003 0.001 -0.004 2.335
125 1 1.243 5.880 19.517 0.000 0.000 0.000 2.111
126 1 4.463 3.941 19.823 0.000 0.000 0.000 2.184
127 1 1.033 5.792 29.245 0.002 0.003 0.001 2.149
128 1 4.309 3.790 29.300 0.001 -0.002 -0.001 2.216
129 1 1.027 5.701 38.271 -0.003 -0.004 -0.002 2.437
130 1 4.611 3.971 38.408 -0.000 0.001 -0.003 2.198
134 3 9.828 2.071 19.444 0.000 0.000 0.000 -1.050
138 3 8.523 3.429 34.766 0.009 0.014 0.004 -1.230
141 3 7.089 1.780 22.267 -0.002 0.000 -0.003 -1.118
143 3 7.503 2.542 32.482 -0.003 -0.001 -0.008 -1.017
144 3 11.236 1.395 30.516 -0.006 0.003 0.006 -1.051
145 3 7.464 2.181 40.678 0.013 0.001 -0.012 -1.212
150 3 11.568 1.537 25.228 -0.011 0.002 0.004 -1.218
152 3 11.902 1.621 34.505 -0.006 -0.001 0.011 -1.316
156 3 9.499 1.887 23.848 0.013 -0.014 -0.005 -1.252
157 3 9.228 1.243 28.897 -0.007 -0.002 -0.008 -1.007
159 3 7.588 1.962 36.423 -0.000 0.001 -0.000 -1.072
162 3 9.186 2.205 42.415 0.011 0.005 -0.006 -1.216
168 3 9.996 2.273 33.049 -0.006 0.008 0.007 -1.105
169 3 8.337 0.112 19.404 0.000 0.000 0.000 -1.144
170 3 11.991 2.067 20.912 0.000 0.000 0.000 -1.020
173 3 11.304 1.801 38.833 0.001 0.002 0.002 -0.996
177 1 9.669 1.998 25.979 0.000 0.002 0.004 2.218
179 1 10.105 1.985 35.362 -0.000 -0.000 -0.002 2.332
183 1 11.386 2.023 23.039 0.000 -0.003 -0.003 2.370
185 1 11.912 2.171 32.441 0.001 -0.000 -0.002 2.243
187 2 12.074 1.519 41.697 -0.002 -0.004 0.003 1.641
190 1 7.618 2.008 20.016 0.000 0.000 0.000 2.131
192 1 7.091 1.638 28.822 -0.001 -0.003 -0.001 2.156
194 1 8.060 2.073 38.498 -0.004 0.005 -0.000 2.254
198 3 6.608 4.036 19.356 0.000 0.000 0.000 -1.069
199 3 9.667 5.592 19.337 0.000 0.000 0.000 -1.150
200 3 7.832 2.362 26.983 -0.020 0.010 0.004 -1.088
201 3 9.234 6.316 28.180 -0.007 -0.002 0.002 -1.109
202 3 9.709 2.779 37.500 -0.014 0.021 0.010 -1.102
203 3 9.589 5.925 37.761 0.005 -0.017 -0.001 -1.148
206 3 7.581 5.606 22.160 -0.003 -0.002 0.008 -1.206
207 3 10.433 3.671 22.351 -0.001 0.003 -0.009 -1.178
208 3 8.814 4.504 30.530 -0.001 0.004 0.009 -1.094
209 3 10.899 4.117 31.910 -0.002 -0.012 0.002 -0.997
210 3 7.772 5.937 40.947 0.012 -0.010 -0.005 -1.056
211 3 11.605 3.805 40.742 0.011 0.005 0.002 -1.177
214 3 8.526 3.904 25.082 -0.002 -0.001 -0.004 -1.140
215 3 11.324 5.922 25.418 -0.006 -0.002 -0.011 -1.364
216 3 5.106 6.176 34.592 -0.009 0.017 0.003 -0.991
217 3 12.835 4.180 33.094 0.000 -0.008 -0.005 -1.283
220 3 6.361 3.796 23.586 0.015 0.004 0.000 -1.417
221 3 9.393 5.463 23.582 0.008 -0.012 -0.010 -1.172
222 3 7.246 5.687 26.357 0.006 0.005 0.004 -1.124
223 3 10.553 3.843 26.944 0.001 0.012 0.002 -1.145
224 3 7.340 5.562 36.322 -0.006 -0.003 0.007 -1.224
225 3 12.845 3.868 38.069 0.006 -0.018 -0.018 -1.079
227 3 10.120 5.327 42.272 0.013 0.003 -0.003 -1.030
231 3 5.842 3.551 33.463 -0.009 -0.001 0.006 -1.027
232 3 9.790 5.827 33.506 0.006 0.009 0.003 -1.165
233 3 8.427 3.647 20.952 0.000 0.000 0.000 -1.170
234 3 11.762 5.978 20.872 0.000 0.000 0.000 -1.086
235 3 6.439 3.889 28.753 0.000 -0.014 0.003 -1.111
236 3 12.195 5.853 29.978 -0.006 -0.007 0.012 -1.113
237 3 9.069 3.879 39.672 0.014 0.002 -0.000 -1.300
238 3 13.103 7.913 38.165 -0.007 0.001 0.010 -1.014
241 1 6.236 3.747 25.826 0.009 -0.000 0.004 2.210
242 1 9.391 5.662 26.201 -0.002 -0.002 0.001 2.214
243 1 6.625 3.752 35.568 0.000 0.001 0.004 2.306
244 1 9.529 5.372 35.655 0.001 0.000 -0.000 2.084
247 1 8.269 3.804 23.149 0.001 -0.000 0.002 2.461
248 1 11.381 5.686 23.056 0.001 0.004 -0.005 2.204
249 1 8.716 4.047 32.677 0.003 0.002 0.001 2.220
250 1 12.020 5.883 32.255 0.005 0.001 0.003 2.127
251 1 8.424 3.901 41.544 -0.005 0.006 0.007 2.378
252 1 11.913 5.607 41.346 -0.001 0.007 -0.003 2.294
255 1 7.677 5.633 20.123 0.000 0.000 0.000 2.174
256 1 10.605 3.818 20.133 0.000 0.000 0.000 2.163
257 1 7.527 5.649 29.361 0.003 0.001 0.001 2.146
258 2 10.484 3.460 29.421 0.002 0.002 0.009 1.660
259 1 7.596 5.619 38.737 0.010 0.002 -0.001 2.208
260 1 10.957 3.797 38.813 0.003 -0.004 -0.000 2.310
263 3 12.537 0.171 19.265 0.000 0.000 0.000 -1.011
264 3 17.790 2.402 19.135 0.000 0.000 0.000 -1.144
266 3 16.323 2.469 28.445 -0.002 0.008 0.001 -1.258
270 3 14.450 1.906 22.011 0.006 0.012 0.004 -1.046
272 3 13.706 2.017 31.050 -0.005 0.005 -0.001 -1.305
274 3 14.505 2.033 41.605 0.001 -0.004 0.005 -1.141
279 3 18.716 2.217 25.691 0.001 -0.006 -0.024 -1.223
281 3 18.523 2.059 34.481 0.010 0.002 0.007 -1.093
285 3 16.611 2.133 24.406 -0.008 0.001 -0.008 -1.120
286 3 14.183 1.839 26.490 0.008 -0.011 0.005 -0.942
288 3 14.360 1.657 35.739 -0.009 0.002 0.006 -1.127
291 3 16.846 1.655 42.591 0.021 0.004 0.012 -1.185
297 3 16.650 1.419 32.652 -0.006 -0.008 0.005 -1.127
298 3 15.041 0.456 19.380 0.000 0.000 0.000 -1.188
299 3 17.771 1.182 21.423 0.000 0.000 0.000 -0.917
301 3 18.361 2.215 30.205 -0.013 0.001 -0.014 -1.340
303 3 16.716 2.111 37.959 0.000 0.004 -0.005 -1.137
307 1 16.437 2.128 26.420 0.001 0.004 -0.005 2.210
309 1 16.323 1.820 34.794 0.002 0.001 -0.003 2.253
313 1 18.168 2.449 23.033 -0.000 0.006 0.004 2.238
315 1 18.487 2.211 32.163 0.001 -0.003 -0.001 2.389
317 1 18.675 2.154 42.105 -0.003 -0.002 -0.002 2.447
320 1 13.752 1.988 19.922 0.000 0.000 0.000 2.161
321 1 17.064 0.459 19.618 0.000 0.000 0.000 2.163
322 1 14.235 2.086 29.101 0.000 0.003 -0.002 2.228
324 2 14.446 2.196 38.135 0.001 -0.008 0.000 1.657
328 3 12.549 3.936 19.387 0.000 0.000 0.000 -1.077
329 3 15.921 6.204 19.412 0.000 0.000 0.000 -1.092
330 3 13.204 3.041 27.505 0.019 -0.002 0.007 -0.927
331 3 16.688 7.753 27.485 0.004 -0.003 -0.011 -1.237
332 3 12.071 5.805 38.846 -0.012 -0.004 -0.006 -1.217
333 3 15.528 6.250 37.478 -0.013 0.008 -0.006 -1.095
336 3 14.464 5.653 21.891 0.004 0.002 -0.002 -0.954
337 3 17.216 3.932 21.764 -0.005 0.002 0.009 -1.097
338 3 14.781 7.695 29.447 -0.005 -0.004 -0.006 -1.193
339 3 17.072 3.859 31.498 -0.000 0.004 -0.001 -1.242
340 3 14.098 5.684 40.969 -0.008 -0.002 0.003 -1.401
341 3 18.779 2.421 39.755 0.006 -0.004 0.004 -1.070
344 3 18.011 6.451 25.730 0.005 -0.010 0.004 -1.225
345 3 14.673 2.513 33.438 -0.003 0.007 0.006 -1.171
346 3 18.446 5.904 34.503 -0.002 0.007 0.007 -1.188
349 3 12.403 3.823 23.908 0.005 -0.008 -0.001 -1.133
350 3 16.363 6.244 24.069 -0.013 -0.004 -0.009 -1.026
351 3 14.490 4.905 25.496 -0.007 -0.007 0.004 -0.955
352 3 16.912 4.067 26.346 0.001 -0.012 -0.000 -1.176
353 3 14.378 5.269 35.537 0.008 0.006 0.005 -1.106
354 3 16.750 3.761 35.482 -0.011 -0.013 0.002 -1.132
356 3 16.495 5.252 42.730 0.006 0.008 -0.005 -1.188
361 3 15.133 5.904 31.057 -0.003 0.006 -0.014 -1.133
362 3 16.136 5.258 33.373 0.009 0.005 0.005 -1.018
363 3 15.037 3.722 19.639 0.000 0.000 0.000 -1.124
364 3 18.493 5.606 19.488 0.000 0.000 0.000 -1.138
365 3 14.311 4.116 30.052 0.003 0.004 -0.010 -1.203
366 3 17.935 6.217 30.004 0.008 0.008 -0.005 -1.244
367 3 15.455 4.059 39.523 0.009 0.002 -0.004 -1.298
368 3 20.314 5.671 41.041 -0.002 0.001 -0.009 -1.029
371 1 12.597 4.249 25.947 0.002 -0.005 -0.004 2.193
372 1 16.091 5.991 26.401 -0.004 0.001 0.004 2.379
373 1 13.235 3.521 35.077 0.002 -0.001 -0.000 1.995
374 1 16.303 5.723 35.573 -0.002 -0.003 -0.002 2.323
377 2 15.294 3.833 23.261 0.002 0.006 0.002 1.690
378 1 18.299 6.425 23.637 0.000 -0.000 -0.001 2.248
379 1 14.866 3.980 31.983 -0.002 0.005 0.000 2.155
380 1 18.045 5.751 32.251 0.000 -0.002 0.001 2.252
381 1 15.275 3.926 41.644 -0.002 0.002 -0.003 2.156
382 1 18.122 5.910 41.736 -0.004 0.002 0.003 2.232
385 1 13.797 5.702 19.676 0.000 0.000 0.000 2.109
386 1 17.074 4.184 19.822 0.000 0.000 0.000 2.121
387 1 14.062 5.911 29.214 0.002 -0.004 0.001 2.390
388 1 17.254 4.122 29.453 -0.002 -0.001 0.007 2.160
389 1 14.109 5.582 38.895 -0.004 0.003 -0.002 2.180
390 1 17.445 3.793 38.963 -0.003 0.005 -0.002 2.259
394 3 22.553 2.319 19.102 0.000 0.000 0.000 -0.980
398 3 22.450 2.273 37.828 -0.008 -0.007 -0.011 -1.079
401 3 20.339 2.515 22.344 -0.003 0.008 -0.009 -1.040
403 3 20.503 2.259 31.793 -0.001 -0.002 -0.005 -1.130
405 3 21.001 1.928 40.847 0.004 -0.015 0.003 -1.053
412 3 23.916 2.745 35.028 0.001 0.005 0.011 -1.109
416 3 22.503 2.151 23.995 0.000 0.016 -0.005 -1.191
417 3 22.178 2.504 28.177 0.000 0.011 -0.003 -1.183
419 3 20.229 2.394 36.417 -0.000 -0.007 -0.015 -1.044
422 3 23.672 3.671 40.520 -0.005 -0.003 -0.001 -1.235
428 3 22.253 2.711 33.211 -0.003 0.009 0.001 -1.091
429 3 21.127 0.328 20.740 0.000 0.000 0.000 -1.054
430 3 23.330 2.500 21.601 0.005 -0.020 -0.002 -1.104
432 3 24.481 2.140 29.911 -0.007 -0.005 -0.000 -1.360
438 1 22.541 2.385 26.155 -0.000 -0.001 0.001 2.186
440 1 22.079 2.317 35.142 -0.006 -0.007 -0.001 2.325
443 1 21.537 0.595 22.891 0.001 -0.004 -0.001 2.205
444 1 24.645 1.938 23.210 0.001 0.005 0.000 2.098
446 1 24.136 2.560 32.031 0.002 0.005 -0.000 2.224
448 1 24.462 2.271 41.795 0.002 -0.003 0.001 2.345
451 2 20.178 2.057 19.185 0.000 0.000 0.000 1.663
452 1 23.654 0.697 20.057 0.000 0.000 0.000 2.051
453 1 20.312 2.324 29.410 0.009 0.003 0.006 2.225
455 1 20.552 1.912 38.627 0.002 -0.005 -0.005 2.249
459 3 22.396 6.231 19.569 0.000 0.000 0.000 -1.048
460 3 19.216 4.273 28.499 -0.002 -0.001 0.002 -1.265
461 3 24.644 5.927 29.581 -0.001 0.000 0.016 -1.000
462 3 18.688 4.379 37.573 -0.013 -0.008 -0.004 -1.246
463 3 22.352 5.842 38.752 0.004 -0.005 0.001 -1.142
466 3 19.923 5.609 22.331 -0.007 0.009 0.025 -0.999
467 3 22.922 5.155 22.034 -0.001 -0.013 -0.009 -1.064
468 3 19.937 5.819 31.499 -0.003 0.009 0.004 -1.191
469 3 23.410 4.370 31.204 -0.004 -0.002 0.001 -1.244
471 3 24.991 6.007 39.395 -0.010 -0.003 0.007 -1.179
474 3 21.102 3.788 25.267 -0.003 -0.000 0.010 -1.126
475 3 24.073 5.803 25.131 -0.006 0.016 -0.006 -1.134
476 3 21.290 4.148 35.478 0.004 0.002 -0.002 -1.164
480 3 18.823 4.297 23.856 0.005 -0.004 -0.006 -1.101
481 3 22.123 5.859 24.049 0.001 -0.003 0.000 -1.088
482 3 20.420 5.661 26.672 0.002 0.017 0.003 -1.180
483 3 23.758 4.069 26.664 -0.008 -0.005 0.003 -1.152
484 3 20.363 6.155 36.357 -0.016 0.005 0.007 -1.146
485 3 23.871 5.048 36.574 -0.008 -0.005 0.005 -1.124
486 3 17.721 3.711 41.153 -0.003 -0.004 0.006 -1.120
487 3 22.712 5.511 42.251 0.005 -0.007 0.010 -1.136
492 3 19.240 4.017 33.255 0.004 -0.011 0.006 -1.161
493 3 22.364 5.571 33.270 0.003 0.020 0.003 -1.221
494 3 21.183 4.279 19.663 0.000 0.000 0.000 -1.030
495 3 24.817 5.508 20.070 0.000 0.000 0.000 -1.090
496 3 21.133 4.197 30.047 0.007 0.006 0.010 -1.124
498 3 21.028 3.822 39.415 -0.001 -0.008 -0.000 -1.141
502 1 19.191 4.075 26.138 0.005 0.003 -0.003 2.165
503 1 22.470 6.014 26.212 0.003 -0.001 -0.005 2.345
504 1 19.217 4.136 35.461 -0.003 0.001 -0.000 2.249
505 1 22.387 6.056 35.339 -0.003 -0.000 0.004 2.177
508 1 21.302 4.087 23.147 -0.000 0.000 0.004 2.174
509 1 24.544 5.595 23.102 0.003 -0.003 0.002 2.266
510 1 21.167 4.426 32.256 0.003 -0.006 -0.003 2.254
511 1 24.363 5.931 32.281 -0.000 0.003 0.003 2.334
512 1 21.521 3.863 41.550 0.001 -0.003 0.007 2.198
513 1 24.887 5.816 41.426 -0.004 0.000 0.000 2.261
516 1 20.403 6.034 20.157 0.000 0.000 0.000 2.277
517 1 23.352 3.966 19.998 0.000 0.000 0.000 2.219
518 1 20.127 5.987 29.192 -0.001 0.003 0.002 2.292
519 1 23.379 4.200 29.086 0.001 -0.001 0.002 2.243
520 1 20.289 5.553 38.460 -0.005 -0.009 0.000 2.201
521 1 23.574 4.001 38.517 0.004 0.003 0.003 2.225
524 3 25.592 0.122 19.242 0.000 0.000 0.000 -1.082
589 3 24.997 2.634 19.510 0.000 0.000 0.000 -1.041
2080 3 0.080 7.586 18.848 0.000 0.000 0.000 -1.098
2081 3 2.664 8.225 19.641 0.000 0.000 0.000 -0.973
2083 3 3.617 10.870 27.433 -0.015 -0.003 0.010 -1.186
2085 3 1.453 11.229 39.045 -0.006 -0.010 0.004 -1.182
2088 3 1.472 9.732 21.927 -0.008 0.013 0.026 -1.253
2089 3 4.492 7.954 22.230 0.001 0.005 -0.003 -1.194
2090 3 1.283 9.395 31.481 0.010 0.002 -0.005 -1.061
2091 3 4.218 7.227 32.335 -0.012 -0.000 0.003 -0.988
2092 3 1.298 9.592 40.688 -0.004 0.000 -0.008 -1.080
2093 3 5.811 6.115 39.683 -0.001 0.013 0.002 -1.076
2096 3 2.248 7.591 25.843 -0.003 0.001 -0.011 -1.105
2097 3 5.207 9.112 25.173 -0.000 -0.001 -0.013 -1.200
2098 3 1.961 7.405 35.204 -0.011 -0.010 -0.005 -1.177
2099 3 6.313 9.239 34.866 -0.005 -0.008 0.002 -1.125
2103 3 3.244 9.464 23.874 0.002 -0.016 0.003 -1.087
2105 3 4.371 7.495 27.072 0.021 -0.002 -0.002 -1.320
2106 3 1.002 9.185 36.413 -0.009 -0.006 0.010 -1.259
2107 3 3.206 10.215 37.313 0.003 0.011 0.001 -1.116
2115 3 2.655 9.065 33.679 -0.004 -0.005 0.015 -1.033
2116 3 1.883 7.109 20.988 0.000 0.000 0.000 -1.032
2117 3 5.332 9.411 19.736 0.000 0.000 0.000 -1.119
2118 3 2.959 8.745 28.734 0.006 -0.002 0.015 -1.140
2119 3 5.107 9.336 29.641 -0.003 0.004 -0.002 -1.098
2120 3 2.188 7.786 38.600 -0.006 -0.001 0.005 -1.111
2121 3 5.189 9.369 39.277 -0.000 0.016 -0.003 -1.257
2125 1 3.370 9.289 26.232 0.001 -0.000 0.003 2.277
2127 1 3.104 9.083 35.700 0.005 -0.001 0.001 2.297
2130 1 2.406 7.901 22.814 0.000 0.001 -0.000 2.299
2131 1 5.567 9.495 23.229 -0.000 0.006 -0.000 2.118
2132 1 1.964 7.507 32.318 -0.006 0.002 0.001 2.150
2133 2 5.394 9.438 32.565 -0.004 0.002 -0.002 1.645
2134 1 2.152 7.607 41.347 -0.001 -0.002 0.002 2.154
2135 1 5.297 9.508 41.531 0.001 -0.000 -0.005 2.251
2138 1 0.977 9.496 19.852 0.000 0.000 0.000 2.151
2139 1 4.366 7.432 20.081 0.000 0.000 0.000 2.256
2140 1 1.158 9.436 29.151 -0.003 0.001 -0.005 2.321
2141 1 4.417 7.497 29.056 -0.008 -0.004 -0.002 2.350
2142 1 0.996 9.419 38.349 -0.002 0.001 -0.003 2.380
2143 1 4.374 7.403 38.666 0.000 0.002 -0.000 2.253
2146 3 0.022 11.240 19.029 0.000 0.000 0.000 -1.048
2147 3 3.170 13.236 19.491 0.000 0.000 0.000 -1.021
2149 3 4.199 13.264 28.820 -0.000 0.015 -0.017 -1.040
2151 3 4.087 12.728 37.544 -0.002 -0.003 0.004 -1.139
2154 3 1.171 12.890 22.010 -0.005 0.001 0.002 -1.104
2155 3 4.141 11.114 22.343 -0.000 0.003 -0.006 -1.139
2156 3 1.110 12.981 31.798 -0.001 0.006 -0.006 -1.223
2157 3 3.802 10.961 31.586 0.001 -0.006 0.003 -1.020
2159 3 4.024 7.921 40.747 -0.006 0.004 -0.015 -1.180
2162 3 1.733 10.205 25.352 0.008 -0.009 -0.001 -1.110
2163 3 5.473 13.480 25.350 -0.010 0.013 0.007 -1.110
2164 3 2.057 11.114 34.741 -0.006 0.005 0.004 -1.141
2165 3 5.464 13.701 34.790 0.008 0.005 -0.009 -1.081
2169 3 3.245 12.981 23.666 -0.009 -0.004 0.007 -1.262
2172 3 4.423 10.997 35.726 0.017 0.001 -0.007 -1.102
2180 3 3.416 12.901 33.533 0.009 0.005 -0.001 -1.186
2181 3 2.388 10.949 19.611 0.000 0.000 0.000 -1.059
2182 3 5.581 12.872 19.891 0.000 0.000 0.000 -1.132
2183 3 2.134 11.516 29.497 -0.003 -0.003 0.006 -1.204
2184 3 6.240 14.930 29.504 0.014 0.003 0.002 -1.320
2185 3 1.306 13.711 40.797 -0.003 -0.002 -0.002 -1.092
2186 3 5.537 13.483 39.448 -0.004 -0.012 0.001 -1.063
2190 2 3.252 13.205 26.426 0.003 -0.004 -0.002 1.640
2192 1 3.431 12.671 35.673 -0.006 -0.001 -0.002 2.295
2195 1 2.246 11.233 23.240 -0.001 -0.004 0.006 2.221
2196 1 5.210 13.163 23.421 0.003 0.003 -0.004 2.171
2197 1 2.043 11.208 32.577 -0.003 -0.002 0.004 2.167
2198 1 5.440 13.261 32.851 -0.002 -0.001 -0.001 2.367
2199 1 1.973 11.664 41.433 0.007 0.001 0.001 2.159
2200 1 5.143 13.314 41.532 -0.003 0.002 0.001 2.305
2203 1 1.045 12.961 19.923 0.000 0.000 0.000 2.114
2204 1 4.396 11.329 20.041 0.000 0.000 0.000 2.052
2205 1 0.812 13.076 29.572 -0.002 -0.003 -0.004 2.063
2206 1 4.162 11.282 29.376 0.003 -0.004 0.001 2.311
2207 1 0.908 13.040 38.628 0.003 -0.002 0.003 2.291
2208 1 4.311 11.199 38.613 -0.002 0.000 0.004 2.294
2211 3 6.518 7.309 19.536 0.000 0.000 0.000 -1.094
2212 3 9.572 9.336 18.992 0.000 0.000 0.000 -1.103
2213 3 6.568 7.361 28.587 0.007 -0.007 -0.005 -1.175
2214 3 9.391 9.871 29.268 -0.015 -0.004 0.001 -1.070
2215 3 6.543 7.508 37.824 -0.001 -0.008 -0.002 -1.183
2216 3 10.802 9.204 37.335 -0.002 -0.010 0.009 -1.224
2219 3 7.609 8.987 22.261 -0.006 0.000 0.013 -1.174
2220 3 10.769 7.617 22.850 -0.013 -0.020 0.004 -1.141
2221 3 7.519 9.688 31.584 -0.000 0.006 -0.001 -1.157
2222 3 10.847 7.474 31.981 0.002 0.006 -0.005 -1.130
2223 3 7.578 9.367 40.684 -0.011 0.001 0.003 -1.106
2224 3 10.918 7.159 40.510 -0.003 -0.001 -0.003 -1.242
2227 3 8.921 7.431 25.177 -0.007 -0.001 -0.003 -1.247
2228 3 12.513 9.419 25.081 -0.003 0.007 0.006 -0.995
2229 3 8.606 7.593 35.015 -0.003 0.003 0.003 -1.061
2230 3 11.476 9.789 34.878 -0.003 -0.007 0.007 -1.073
2233 3 6.498 7.114 24.272 0.006 -0.014 0.004 -1.145
2234 3 10.223 9.801 24.025 0.005 -0.006 0.002 -0.993
2235 3 7.849 9.062 26.972 -0.005 0.001 0.009 -1.187
2236 3 11.346 8.563 26.805 0.005 0.009 0.012 -1.160
2237 3 8.022 9.307 36.624 0.013 -0.014 0.006 -1.111
2238 3 10.828 7.089 36.291 -0.005 -0.005 0.002 -1.048
2240 3 10.136 8.265 42.859 0.004 -0.007 -0.008 -0.988
2245 3 7.295 5.838 32.832 -0.001 -0.019 -0.001 -1.138
2246 3 9.564 9.274 33.284 -0.009 -0.013 0.002 -1.181
2247 3 8.949 7.610 20.784 0.000 0.000 0.000 -1.132
2248 3 12.070 8.837 20.735 0.000 0.000 0.000 -1.040
2249 3 8.226 7.362 30.660 0.002 0.009 0.001 -1.182
2250 3 8.911 7.557 39.143 -0.009 -0.003 -0.004 -1.106
2251 3 11.813 10.089 39.631 -0.007 -0.019 0.006 -1.088
2254 1 6.567 7.558 26.133 0.003 -0.002 -0.003 2.233
2255 1 9.655 9.394 26.062 -0.002 -0.002 -0.001 2.160
2256 1 6.481 7.372 35.786 0.000 0.000 0.001 2.250
2257 1 9.702 9.343 35.459 0.003 -0.003 0.002 2.320
2260 1 8.629 7.303 23.131 -0.004 0.003 -0.004 2.239
2261 1 11.850 9.472 22.720 0.001 0.003 -0.002 2.350
2262 1 8.877 7.497 32.615 -0.005 -0.003 -0.004 2.184
2263 2 11.882 9.664 32.454 0.002 -0.001 -0.005 1.730
2264 1 9.026 7.698 41.217 0.001 0.002 0.000 2.255
2265 1 11.748 9.249 41.582 -0.003 -0.001 0.004 2.207
2268 1 7.585 9.207 19.958 0.000 0.000 0.000 2.082
2269 1 10.717 7.534 19.765 0.000 0.000 0.000 2.136
2270 1 7.468 9.122 29.767 -0.003 -0.004 0.007 2.140
2271 2 10.740 7.824 29.215 0.004 -0.001 0.004 1.634
2272 1 7.305 9.345 38.583 0.005 0.003 -0.000 2.224
2273 1 10.822 7.373 38.219 0.006 -0.002 -0.000 2.418
2276 3 7.643 11.249 20.014 0.000 0.000 0.000 -0.937
2277 3 11.348 13.113 19.059 0.000 0.000 0.000 -1.010
2278 3 6.362 11.256 29.243 0.010 0.000 -0.007 -1.015
2279 3 9.914 13.189 28.296 -0.008 -0.002 -0.002 -1.010
2280 3 6.473 11.306 37.705 0.017 0.004 0.003 -1.190
2281 3 8.652 14.979 39.141 -0.012 -0.008 -0.008 -1.429
2284 3 8.223 13.526 21.804 0.002 0.004 -0.010 -1.064
2285 3 10.686 10.503 21.366 0.000 0.000 0.000 -1.015
2286 3 6.695 11.770 33.492 -0.001 -0.002 0.006 -1.156
2287 3 8.847 12.033 30.356 -0.008 -0.018 -0.019 -1.053
2288 3 7.331 12.986 40.613 0.010 -0.008 0.021 -1.126
2289 3 9.783 9.772 40.881 -0.003 0.004 0.010 -1.058
2292 3 8.974 11.560 26.107 0.000 0.003 0.004 -0.961
2293 3 12.079 12.986 25.811 0.009 0.000 -0.016 -1.123
2294 3 8.859 11.287 35.321 0.004 0.006 -0.001 -1.107
2295 3 11.612 13.315 34.539 -0.002 -0.002 0.004 -1.271
2298 3 6.362 11.329 23.554 0.003 0.017 0.009 -1.159
2299 3 9.922 13.200 23.970 0.004 0.008 0.013 -1.170
2300 3 7.230 13.621 27.528 0.003 0.004 -0.000 -0.994
2301 3 10.857 10.753 27.224 -0.010 -0.011 0.007 -1.069
2302 3 7.383 13.311 36.196 -0.000 -0.008 0.011 -1.031
2303 3 11.054 12.046 36.594 0.001 0.000 0.017 -1.078
2304 3 6.358 11.129 41.983 -0.002 0.005 0.007 -1.198
2305 3 9.180 13.238 42.252 0.011 0.019 0.008 -1.026
2310 3 10.723 11.687 32.295 0.003 -0.000 0.008 -1.103
2311 3 8.887 11.933 18.888 0.000 0.000 0.000 -0.832
2312 3 11.404 13.368 21.411 0.000 0.000 0.000 -1.130
2313 3 5.844 12.700 31.054 -0.003 0.008 0.002 -1.031
2314 3 13.891 13.219 31.648 0.008 0.007 0.013 -1.151
2315 3 8.535 11.049 38.968 -0.001 -0.005 0.012 -1.190
2316 3 10.657 12.946 39.218 -0.005 -0.001 -0.009 -1.120
2318 2 6.929 11.354 26.850 0.001 0.005 0.004 1.619
2319 1 10.116 13.459 26.060 0.000 -0.001 -0.002 2.236
2320 1 6.638 11.154 35.580 0.000 0.005 0.002 2.206
2321 1 9.736 13.397 35.288 -0.000 -0.000 -0.002 2.272
2324 2 8.648 11.343 22.740 0.001 -0.001 0.004 1.682
2325 1 11.888 13.447 23.205 0.004 -0.003 -0.003 2.215
2326 1 8.791 11.353 32.520 -0.001 -0.001 -0.000 2.175
2327 1 12.097 13.368 32.579 0.003 -0.002 0.000 2.240
2328 1 8.264 11.319 41.367 0.003 0.001 -0.001 2.237
2329 2 11.640 13.031 41.623 0.002 -0.001 -0.002 1.643
2332 1 7.668 13.405 19.823 0.000 0.000 0.000 2.169
2333 1 10.750 11.063 19.356 0.000 0.000 0.000 2.103
2334 1 7.300 13.325 29.669 0.005 0.005 0.001 2.271
2335 1 10.711 11.495 29.261 -0.002 0.006 -0.005 2.239
2336 1 7.405 13.160 38.380 -0.002 -0.002 -0.000 2.292
2337 1 10.413 11.002 38.221 0.001 0.001 -0.002 2.204
2340 3 12.823 7.387 18.914 0.000 0.000 0.000 -1.112
2341 3 16.304 9.456 19.283 0.000 0.000 0.000 -1.093
2342 3 13.211 5.842 27.403 0.003 -0.002 0.001 -1.165
2343 3 16.620 9.837 29.438 -0.005 0.008 0.000 -1.073
2344 3 11.126 3.921 35.522 0.007 0.016 -0.019 -1.142
2345 3 15.673 9.459 37.717 -0.021 -0.009 -0.003 -1.110
2348 3 13.892 9.376 22.741 0.017 -0.001 0.008 -1.031
2349 3 17.859 7.203 21.777 0.006 -0.003 -0.008 -0.921
2350 3 13.934 8.681 31.474 0.005 0.002 -0.001 -1.113
2351 3 17.227 7.610 31.904 0.010 -0.002 -0.002 -1.115
2352 3 13.985 9.491 41.117 0.001 -0.012 0.003 -1.213
2353 3 16.987 7.811 41.518 -0.010 0.002 0.006 -1.083
2356 3 14.739 7.561 25.787 -0.003 -0.004 0.016 -1.025
2357 3 16.865 9.578 24.449 0.013 -0.003 -0.004 -0.886
2358 3 15.724 7.696 34.484 -0.002 -0.005 0.001 -1.058
2359 3 18.129 9.394 34.940 0.009 -0.004 0.000 -1.175
2362 3 13.115 6.842 23.772 -0.003 -0.010 0.010 -0.994
2363 3 16.665 8.338 22.601 -0.004 -0.002 0.001 -0.980
2364 3 13.992 9.489 27.488 -0.000 -0.011 -0.015 -1.084
2365 3 19.289 7.763 28.452 0.015 0.002 0.000 -1.315
2366 3 14.059 9.567 35.501 -0.001 -0.010 -0.010 -0.993
2367 3 17.407 7.161 36.487 0.004 0.005 0.002 -1.067
2368 3 12.734 7.716 42.478 0.009 -0.009 -0.006 -1.301
2369 3 16.418 9.935 42.822 -0.011 -0.003 -0.005 -1.078
2374 3 13.346 7.079 33.276 0.001 0.007 0.007 -1.085
2375 3 16.012 9.651 32.625 0.003 -0.006 -0.003 -1.011
2376 3 14.852 7.894 20.624 0.000 0.000 0.000 -1.098
2377 3 18.307 9.701 20.947 0.000 0.000 0.000 -1.093
2378 3 16.006 5.501 28.460 -0.007 -0.003 -0.006 -1.176
2379 3 18.476 9.299 30.270 -0.006 -0.003 -0.001 -1.065
2380 3 15.019 7.661 39.677 0.002 -0.005 -0.007 -1.153
2381 3 18.034 9.335 39.114 0.016 0.019 -0.016 -1.117
2384 1 12.559 7.440 25.850 -0.003 0.001 -0.005 2.245
2385 1 15.972 9.379 26.380 0.005 -0.000 -0.004 2.200
2386 2 13.154 7.404 35.787 -0.004 -0.003 -0.003 1.726
2387 1 16.065 9.531 35.589 0.002 0.001 -0.001 2.190
2390 1 15.030 7.468 22.652 0.000 0.003 -0.005 2.290
2391 1 18.312 9.604 23.020 -0.003 0.001 0.001 2.296
2392 1 15.197 7.571 32.428 0.007 0.000 0.003 2.290
2393 1 18.231 9.691 32.213 -0.001 0.001 -0.004 2.321
2394 1 14.774 7.545 41.705 0.004 0.004 -0.003 2.273
2395 1 18.330 9.437 41.848 -0.000 -0.001 0.002 2.240
2398 1 14.056 9.230 19.403 0.000 0.000 0.000 2.072
2399 1 17.262 7.698 19.899 0.000 0.000 0.000 2.204
2400 1 14.151 9.638 29.625 0.002 0.000 -0.001 2.268
2401 1 17.212 7.790 29.291 -0.005 -0.005 0.004 2.428
2402 1 13.934 9.599 38.981 0.001 -0.001 0.001 2.363
2403 1 17.007 7.620 38.656 -0.007 -0.004 -0.002 2.249
2406 3 12.752 10.831 18.766 0.000 0.000 0.000 -1.095
2407 3 16.058 13.344 19.325 0.000 0.000 0.000 -1.055
2408 3 12.250 10.337 30.087 0.004 0.003 -0.002 -1.110
2409 3 15.902 13.383 28.963 -0.004 0.012 -0.004 -1.185
2410 3 13.455 11.167 37.717 0.003 0.002 0.002 -1.017
2411 3 15.224 11.190 39.334 0.006 0.015 0.004 -1.038
2414 3 13.891 13.742 23.218 -0.001 0.016 -0.007 -1.048
2415 3 17.071 11.778 22.081 0.006 -0.006 0.013 -1.052
2416 3 14.898 11.350 30.591 0.001 0.002 -0.008 -1.175
2417 3 17.131 11.800 31.774 -0.014 -0.015 -0.001 -1.208
2418 3 13.641 12.041 40.358 -0.009 -0.005 -0.008 -0.891
2422 3 14.784 11.548 25.802 -0.002 -0.020 -0.010 -1.021
2423 3 18.320 12.772 26.370 -0.009 -0.005 -0.004 -1.092
2424 3 15.782 11.305 34.447 -0.007 -0.001 0.004 -1.059
2425 3 18.571 13.144 34.517 0.001 0.003 -0.003 -1.139
2428 3 12.364 11.452 23.564 0.001 0.002 -0.013 -0.976
2429 3 16.365 13.290 24.177 -0.000 0.012 0.013 -1.026
2430 3 13.550 14.875 28.336 -0.005 -0.005 -0.008 -1.112
2431 3 16.774 11.156 27.172 -0.004 0.004 -0.003 -1.073
2432 3 14.147 13.077 36.267 -0.012 0.012 -0.012 -1.122
2433 3 16.797 11.672 36.476 0.003 -0.000 -0.011 -1.175
2434 3 11.920 10.376 43.225 0.006 -0.007 -0.013 -0.935
2435 3 15.938 13.287 42.301 -0.013 -0.014 0.003 -1.231
2440 3 13.476 11.840 33.596 0.004 0.013 0.002 -1.166
2441 3 16.030 13.489 33.183 0.003 -0.004 -0.001 -1.339
2442 3 14.975 11.137 19.932 0.000 0.000 0.000 -0.963
2443 3 18.140 13.485 20.932 0.000 0.000 0.000 -1.156
2444 3 13.424 11.608 28.501 0.014 -0.014 -0.010 -1.102
2445 3 18.877 12.580 30.495 -0.000 -0.001 0.007 -1.034
2446 3 17.304 11.090 40.865 0.007 0.017 0.009 -1.084
2447 3 17.745 13.161 38.880 -0.005 -0.011 0.004 -1.132
2450 1 12.824 10.990 26.420 0.001 -0.001 0.000 2.210
2451 1 16.316 13.237 26.282 -0.004 0.004 -0.005 2.251
2452 1 12.852 11.379 35.489 -0.001 -0.004 0.003 2.215
2453 1 16.164 13.321 35.255 -0.003 0.005 -0.003 2.178
2456 2 14.811 11.475 23.258 0.001 -0.001 0.003 1.726
2457 1 18.256 13.271 22.993 -0.001 0.002 -0.000 2.243
2458 1 15.212 11.658 32.467 0.007 0.003 0.001 2.470
2459 1 18.156 13.370 32.450 -0.002 -0.000 -0.005 2.263
2460 1 15.250 11.371 41.857 0.001 -0.002 0.004 2.152
2461 1 18.172 13.196 41.585 0.003 0.007 0.001 2.317
2464 2 13.797 12.979 18.821 0.000 0.000 0.000 1.647
2465 1 17.035 11.422 20.031 0.000 0.000 0.000 2.159
2466 1 13.971 13.205 29.536 0.000 -0.006 -0.001 2.328
2467 1 17.246 11.634 29.279 -0.004 0.002 -0.000 2.223
2468 1 13.958 13.105 38.648 0.001 -0.006 -0.007 2.278
2469 1 17.249 11.264 38.525 -0.004 0.005 -0.003 2.228
2472 3 19.397 7.899 19.465 0.000 0.000 0.000 -1.027
2473 3 22.611 9.435 19.762 0.000 0.000 0.000 -1.037
2474 3 22.201 5.757 28.405 -0.006 0.001 -0.001 -1.236
2475 3 20.547 9.623 26.948 0.012 0.004 0.000 -1.300
2476 3 17.482 5.846 39.614 0.003 -0.005 -0.011 -1.163
2477 3 22.458 9.790 37.747 0.001 0.003 -0.002 -1.171
2480 3 21.058 9.881 22.139 0.011 -0.009 -0.012 -1.111
2481 3 23.796 7.392 22.153 -0.003 -0.016 -0.002 -1.130
2482 3 20.599 10.071 31.219 0.013 -0.004 -0.004 -1.118
2483 3 22.613 9.790 33.270 0.006 0.001 -0.010 -1.220
2484 3 20.091 10.210 40.637 0.007 0.005 -0.001 -1.054
2485 3 23.469 10.722 41.185 -0.006 -0.010 -0.004 -1.063
2488 3 21.374 7.823 25.649 -0.005 -0.005 -0.017 -1.161
2490 3 21.423 7.770 34.310 -0.004 0.002 -0.014 -1.220
2494 3 19.535 8.165 23.668 -0.010 0.001 -0.000 -1.210
2495 3 22.923 9.335 24.049 -0.005 -0.002 -0.009 -1.250
2496 3 18.133 9.193 25.671 -0.011 -0.005 0.008 -1.037
2497 3 23.607 7.488 27.306 0.006 0.009 -0.001 -1.155
2498 3 19.197 7.374 38.534 0.002 -0.002 0.006 -0.925
2499 3 22.819 7.638 36.692 -0.006 -0.001 0.001 -1.190
2506 3 19.432 8.187 32.946 -0.010 0.006 -0.004 -0.985
2507 3 20.195 9.080 36.543 0.010 0.005 -0.002 -1.169
2508 3 21.180 7.624 21.207 0.000 0.000 0.000 -1.032
2509 3 24.830 9.960 21.066 0.000 0.000 0.000 -1.108
2510 3 21.303 7.664 30.115 -0.004 0.000 -0.002 -1.228
2511 3 22.494 9.517 28.403 -0.002 0.002 -0.004 -1.075
2512 3 21.414 7.915 39.476 -0.010 0.009 0.007 -1.050
2513 3 24.722 9.725 39.510 -0.002 -0.001 0.001 -1.130
2516 1 19.539 7.761 26.413 -0.003 0.002 -0.001 2.215
2517 1 22.320 9.962 26.078 0.002 0.003 -0.002 2.288
2518 1 19.418 7.645 35.262 -0.002 -0.002 -0.001 2.286
2519 1 22.501 9.518 35.623 0.002 -0.002 -0.000 2.259
2522 1 21.764 7.827 23.199 0.002 0.004 -0.006 2.217
2523 1 24.667 9.732 23.189 -0.002 0.002 -0.002 2.342