ITEM: TIMESTEP
80000
ITEM: NUMBER OF ATOMS
37374
ITEM: BOX BOUNDS pp pp pp
0.000000 102.779942
0.000000 118.660062
0.000000 130.735200
ITEM: ATOMS id type x y z vx vy vz q
2 3 3.194 2.308 19.117 0.000 0.000 0.000 -1.048
4 3 3.068 1.962 29.448 0.009 -0.008 0.005 -1.104
6 3 3.536 1.762 37.049 0.000 -0.016 0.013 -1.148
9 3 1.220 2.045 21.814 0.006 0.008 0.006 -1.082
13 3 0.860 1.913 40.423 -0.002 0.005 -0.002 -0.934
18 3 5.053 2.679 24.971 -0.003 0.001 -0.000 -1.015
20 3 5.119 2.055 34.497 -0.007 0.016 0.002 -1.160
24 3 2.943 2.134 23.702 0.005 -0.001 -0.003 -1.012
30 3 2.613 1.575 42.681 -0.012 0.003 0.011 -1.092
36 3 3.269 2.806 33.153 0.003 -0.006 0.006 -1.026
37 3 1.881 0.228 19.742 0.000 0.000 0.000 -1.203
38 3 5.513 1.819 19.848 0.000 0.000 0.000 -1.059
40 3 5.313 2.128 30.046 0.007 -0.003 -0.008 -1.411
46 2 2.960 2.291 26.211 0.000 -0.002 0.004 1.674
48 1 3.019 1.950 35.149 0.001 0.001 0.010 2.209
52 1 5.269 2.171 22.912 -0.001 0.001 0.001 2.249
54 1 4.886 2.161 32.016 -0.002 0.003 -0.001 2.294
56 1 5.490 2.309 41.491 0.001 -0.002 0.003 2.388
59 1 1.108 2.215 19.775 0.000 0.000 0.000 2.230
60 1 4.018 0.309 19.738 0.000 0.000 0.000 2.217
61 1 0.867 1.942 29.365 0.001 -0.003 0.004 2.233
63 1 1.072 2.225 38.269 0.004 -0.003 0.001 2.309
67 3 0.086 4.021 19.084 0.000 0.000 0.000 -1.093
68 3 3.421 5.669 19.058 0.000 0.000 0.000 -1.084
70 3 3.510 5.728 28.374 -0.005 0.003 -0.005 -1.114
72 3 3.227 6.085 37.729 0.013 -0.000 -0.000 -1.166
76 3 4.091 3.537 21.721 -0.000 0.006 -0.011 -1.232
77 3 0.847 6.312 31.926 -0.005 0.003 -0.000 -1.166
78 3 4.043 3.963 31.354 -0.005 0.008 0.008 -1.209
80 3 4.609 3.979 41.404 -0.005 -0.005 -0.010 -1.075
83 3 1.985 4.665 25.834 -0.004 -0.004 0.002 -1.129
84 3 5.062 5.425 25.385 -0.005 0.012 -0.011 -1.153
85 3 1.946 3.978 35.235 -0.002 -0.010 0.012 -1.125
86 3 3.978 7.576 36.101 -0.012 -0.002 0.003 -1.197
90 3 2.984 5.967 23.470 0.004 -0.008 -0.007 -1.136
92 3 4.808 3.252 27.569 0.002 -0.003 -0.006 -1.082
94 3 4.676 4.308 36.272 0.002 0.004 0.001 -1.101
96 3 2.561 5.819 42.555 0.011 -0.001 0.019 -1.123
102 3 3.154 5.812 33.430 0.001 -0.014 -0.012 -1.342
103 3 1.960 4.014 20.727 0.000 0.000 0.000 -1.019
104 3 5.058 5.763 20.991 0.000 0.000 0.000 -1.112
105 3 2.178 4.295 29.877 0.013 0.004 0.009 -1.140
106 3 5.320 5.428 30.117 0.011 0.006 -0.003 -0.953
107 3 2.395 3.896 38.844 -0.007 -0.003 0.001 -1.142
108 3 6.324 3.908 38.474 -0.010 -0.001 -0.002 -1.156
112 1 3.186 6.239 26.419 0.000 0.001 -0.005 2.119
114 1 3.046 5.673 35.389 0.004 0.001 0.003 2.197
117 1 2.422 4.051 22.824 -0.002 -0.003 -0.001 2.154
118 1 5.362 5.793 23.310 -0.001 0.001 0.006 2.130
119 1 1.652 4.099 32.208 0.001 0.006 -0.003 2.127
120 1 5.074 5.413 32.454 -0.005 0.002 -0.002 2.188
121 2 2.119 3.734 41.536 0.002 0.002 -0.003 1.687
122 1 5.588 5.952 41.571 -0.001 -0.001 0.001 2.306
125 1 1.243 5.880 19.517 0.000 0.000 0.000 2.097
126 1 4.463 3.941 19.823 0.000 0.000 0.000 2.214
127 1 0.895 5.752 29.346 0.004 -0.001 0.003 2.227
128 1 4.126 3.841 29.383 0.002 0.001 0.001 2.466
129 1 0.895 5.597 38.392 -0.003 -0.001 -0.004 2.204
130 1 4.395 4.186 38.320 0.001 -0.000 0.008 2.208
134 3 9.828 2.071 19.444 0.000 0.000 0.000 -1.079
138 3 8.512 3.855 34.638 0.001 -0.002 -0.013 -1.142
141 3 7.318 1.584 21.975 -0.003 -0.004 -0.002 -1.222
143 3 8.186 2.511 30.866 0.012 0.012 -0.000 -1.085
144 3 10.915 1.302 30.444 0.002 -0.006 -0.008 -1.077
145 3 7.218 1.941 40.476 0.010 0.000 0.007 -1.158
150 3 11.493 1.750 25.028 0.016 -0.008 -0.003 -0.996
152 3 11.216 2.566 34.384 -0.003 -0.005 -0.001 -1.164
156 3 9.360 2.104 23.441 -0.011 -0.013 0.004 -1.211
157 3 8.988 2.063 28.133 -0.002 -0.007 -0.006 -1.085
159 3 6.938 2.145 36.284 -0.003 -0.002 -0.007 -1.217
162 3 9.141 2.264 42.412 0.016 0.006 0.001 -1.013
168 3 9.094 2.231 33.406 -0.002 -0.005 0.001 -1.106
169 3 8.337 0.112 19.404 0.000 0.000 0.000 -1.150
170 3 11.991 2.067 20.912 0.000 0.000 0.000 -1.110
173 3 10.816 2.127 38.360 0.004 -0.010 0.001 -0.892
177 1 9.434 2.008 26.115 -0.005 0.002 -0.002 2.336
179 1 9.521 1.895 35.254 -0.001 0.001 0.002 2.393
183 1 11.472 2.000 22.975 0.001 0.003 -0.004 2.265
185 1 11.830 2.055 32.251 0.001 0.001 -0.002 2.060
187 2 12.009 1.990 42.080 -0.002 -0.001 0.002 1.697
190 1 7.618 2.008 20.016 0.000 0.000 0.000 2.210
192 1 7.127 2.189 29.079 -0.003 -0.001 -0.006 2.165
194 1 7.570 2.197 38.466 0.004 0.002 -0.003 2.383
198 3 6.608 4.036 19.356 0.000 0.000 0.000 -1.080
199 3 9.667 5.592 19.337 0.000 0.000 0.000 -1.147
200 3 7.164 1.772 26.659 0.000 -0.006 0.003 -1.094
201 3 9.122 6.020 28.298 -0.002 -0.010 -0.001 -0.975
202 3 9.235 2.446 37.183 -0.002 -0.003 0.003 -1.024
203 3 9.551 5.858 37.843 -0.003 -0.013 0.008 -1.247
206 3 7.498 5.997 22.281 0.002 -0.000 -0.006 -1.110
207 3 10.558 3.985 22.225 -0.000 -0.006 0.002 -1.271
208 3 7.834 5.324 31.090 -0.001 -0.006 0.003 -0.929
209 3 10.570 3.918 31.400 -0.010 0.011 0.012 -1.200
210 3 7.557 5.474 40.431 -0.004 -0.001 -0.001 -1.073
211 3 10.949 4.089 41.385 -0.007 0.001 -0.009 -1.145
214 3 8.369 3.367 25.382 0.006 0.008 -0.005 -1.167
215 3 11.611 5.906 25.744 -0.000 0.008 -0.012 -0.986
216 3 5.715 5.765 34.419 0.004 -0.016 -0.002 -1.299
217 3 12.686 3.905 32.974 -0.005 -0.011 0.017 -1.336
220 3 6.561 4.037 23.335 0.007 -0.001 -0.002 -1.226
221 3 9.614 5.747 24.008 0.007 0.004 -0.009 -1.192
222 3 7.626 5.597 26.217 -0.006 -0.002 0.016 -1.192
223 3 10.847 3.686 26.538 0.013 0.003 -0.001 -1.073
224 3 7.496 5.217 36.295 0.008 0.011 -0.019 -1.180
225 3 12.811 4.091 38.486 0.016 0.010 0.009 -1.006
227 3 9.209 5.790 42.534 0.005 0.005 0.009 -1.220
231 3 6.260 3.594 32.949 0.003 -0.004 -0.001 -1.198
232 3 10.057 5.552 33.513 0.009 -0.008 0.002 -1.171
233 3 8.427 3.647 20.952 0.000 0.000 0.000 -1.226
234 3 11.762 5.978 20.872 0.000 0.000 0.000 -1.206
235 3 6.593 4.194 28.469 0.003 0.001 -0.009 -1.098
236 3 12.300 5.916 30.196 -0.019 0.001 0.004 -1.022
237 3 8.947 3.511 39.405 -0.008 -0.012 -0.012 -1.118
238 3 13.929 7.612 37.891 -0.003 -0.002 -0.005 -1.169
241 1 6.272 3.842 26.136 -0.001 0.000 -0.002 2.260
242 1 9.588 5.626 26.137 -0.004 -0.002 0.005 2.209
243 1 6.443 3.684 35.124 0.004 0.007 -0.004 2.322
244 1 9.458 5.562 35.638 -0.002 0.001 0.001 2.147
247 1 8.485 3.943 23.069 0.005 -0.002 -0.004 2.285
248 1 11.626 5.635 22.818 -0.000 -0.004 -0.001 2.224
249 1 8.596 3.811 32.338 0.001 0.003 0.002 2.242
250 1 11.599 5.405 32.167 0.001 0.003 0.001 2.356
251 1 8.911 4.157 41.421 0.001 0.001 0.002 2.276
252 1 12.006 5.734 42.031 0.003 0.006 -0.000 2.147
255 1 7.677 5.633 20.123 0.000 0.000 0.000 2.131
256 1 10.605 3.818 20.133 0.000 0.000 0.000 2.201
257 1 7.292 6.047 29.248 0.006 0.004 0.000 2.339
258 2 10.944 3.294 28.990 0.003 0.006 0.003 1.647
259 1 7.445 5.899 38.355 -0.002 0.004 -0.001 2.186
260 1 10.725 4.143 38.370 -0.000 0.003 0.002 2.351
263 3 12.537 0.171 19.265 0.000 0.000 0.000 -1.020
264 3 17.790 2.402 19.135 0.000 0.000 0.000 -1.145
266 3 16.161 2.026 28.319 0.006 0.003 0.006 -1.153
270 3 14.726 1.802 21.675 0.007 -0.008 0.013 -1.066
272 3 13.797 2.078 31.580 -0.002 0.008 0.012 -1.367
274 3 14.501 2.049 41.629 -0.004 -0.000 0.014 -1.115
279 3 18.658 2.247 25.292 -0.008 -0.010 -0.003 -1.033
281 3 19.258 2.251 33.982 -0.008 -0.008 -0.001 -1.066
285 3 16.466 2.087 24.043 -0.009 -0.001 0.002 -1.097
286 3 14.052 2.127 27.109 -0.008 0.003 0.004 -1.011
288 3 12.522 1.727 36.254 0.004 0.010 0.010 -1.119
291 3 16.811 1.407 42.549 0.004 0.000 0.012 -1.211
297 3 17.259 0.494 33.251 -0.000 -0.005 -0.007 -1.155
298 3 15.041 0.456 19.380 0.000 0.000 0.000 -1.138
299 3 17.771 1.182 21.423 0.000 0.000 0.000 -0.904
301 3 18.539 2.803 29.986 -0.004 0.018 0.006 -1.246
303 3 16.687 2.208 38.263 -0.006 0.014 0.002 -1.041
307 1 15.989 2.124 26.068 0.003 0.003 0.003 2.269
309 1 16.290 1.875 34.565 -0.001 -0.001 -0.001 2.192
313 1 18.379 2.220 23.086 -0.004 -0.004 -0.008 2.194
315 1 18.330 2.119 31.998 0.001 -0.005 -0.000 2.237
317 1 18.444 2.069 41.639 0.001 0.001 -0.001 2.184
320 1 13.752 1.988 19.922 0.000 0.000 0.000 2.207
321 1 17.064 0.459 19.618 0.000 0.000 0.000 2.193
322 1 14.305 1.853 29.294 0.003 -0.008 -0.001 2.147
324 2 14.321 2.263 37.921 0.001 0.002 -0.002 1.659
328 3 12.549 3.936 19.387 0.000 0.000 0.000 -1.086
329 3 15.921 6.204 19.412 0.000 0.000 0.000 -1.051
330 3 13.305 3.790 28.663 -0.004 0.002 -0.005 -1.107
331 3 17.096 7.763 26.910 -0.006 -0.016 -0.007 -1.197
332 3 11.526 5.844 39.140 -0.002 -0.007 0.002 -1.113
333 3 16.411 5.227 37.480 -0.006 -0.011 -0.010 -1.248
336 3 14.590 5.838 21.659 0.013 -0.003 -0.001 -1.053
337 3 17.656 4.146 21.912 -0.015 0.007 0.004 -1.118
338 3 15.179 7.442 30.152 0.010 -0.017 0.006 -1.057
339 3 16.460 2.847 32.669 0.006 -0.006 -0.012 -1.224
340 3 13.884 6.053 41.215 -0.000 -0.008 0.012 -1.231
341 3 18.740 1.608 39.599 -0.005 -0.003 0.009 -1.245
344 3 18.384 6.143 25.145 -0.001 -0.013 -0.006 -1.198
345 3 14.659 3.103 34.373 0.019 0.004 -0.002 -1.228
346 3 18.363 5.693 34.856 0.003 0.011 -0.003 -1.233
349 3 12.605 3.862 23.421 -0.007 0.007 -0.006 -1.039
350 3 16.447 5.754 23.943 -0.012 0.004 0.004 -1.029
351 3 15.116 4.288 26.125 -0.013 0.005 0.011 -1.138
352 3 17.380 3.796 26.698 -0.003 -0.006 -0.001 -0.948
353 3 14.010 5.009 35.802 -0.006 -0.002 0.012 -1.074
354 3 17.102 3.536 35.503 0.003 0.002 -0.007 -1.243
356 3 16.358 5.544 42.667 -0.001 -0.002 -0.004 -1.093
361 3 14.318 5.777 31.800 0.001 -0.007 -0.000 -1.158
362 3 16.132 5.319 33.223 -0.005 0.004 -0.009 -1.046
363 3 15.037 3.722 19.639 0.000 0.000 0.000 -1.138
364 3 18.493 5.606 19.488 0.000 0.000 0.000 -1.140
365 3 15.437 3.772 30.098 0.003 -0.004 -0.007 -1.159
366 3 18.763 4.947 27.918 0.009 -0.002 -0.002 -1.122
367 3 15.027 4.112 39.525 -0.015 0.000 -0.000 -1.054
368 3 20.076 6.030 41.168 0.014 -0.004 0.003 -1.104
371 1 13.049 4.349 26.587 0.001 0.001 0.001 1.947
372 1 16.422 6.094 26.081 -0.004 0.000 0.002 2.188
373 1 12.816 3.488 35.113 -0.003 0.004 -0.002 2.231
374 1 16.187 5.308 35.507 -0.004 0.005 0.004 2.228
377 2 15.021 3.915 23.039 0.000 -0.003 -0.004 1.634
378 1 18.360 5.875 23.116 -0.005 0.003 -0.002 2.416
379 1 14.743 3.753 32.251 -0.002 -0.005 -0.003 2.333
380 1 18.071 5.728 32.511 0.004 0.004 0.002 2.203
381 1 15.182 3.946 41.759 -0.001 0.001 -0.003 2.120
382 1 18.164 5.984 41.761 0.003 -0.004 -0.007 2.418
385 1 13.797 5.702 19.676 0.000 0.000 0.000 2.137
386 1 17.074 4.184 19.822 0.000 0.000 0.000 2.059
387 1 14.196 5.810 29.463 0.005 -0.001 -0.002 2.194
388 1 17.172 3.910 28.889 -0.002 0.004 0.002 2.165
389 1 13.846 5.759 39.089 0.003 -0.000 -0.003 2.121
390 1 17.323 4.139 38.821 -0.002 0.002 0.006 2.202
394 3 22.553 2.319 19.102 0.000 0.000 0.000 -0.991
398 3 22.847 1.182 37.279 -0.001 -0.002 -0.008 -0.904
401 3 20.417 2.445 22.646 -0.004 0.006 -0.001 -1.187
403 3 20.644 1.905 31.456 -0.000 0.001 -0.003 -1.194
405 3 20.783 2.299 41.635 -0.003 -0.005 0.016 -1.188
412 3 23.683 3.669 36.034 0.001 -0.003 0.007 -1.204
416 3 22.477 1.582 24.029 -0.004 0.006 -0.018 -1.126
417 3 22.614 2.197 29.022 0.009 0.003 0.005 -0.987
419 3 20.498 1.926 36.337 0.020 0.008 0.009 -1.247
422 3 23.163 3.849 40.491 -0.008 -0.006 -0.009 -1.046
428 3 22.331 2.564 33.174 -0.007 0.001 -0.003 -1.132
429 3 21.127 0.328 20.740 0.000 0.000 0.000 -1.082
430 3 23.484 2.479 21.480 -0.005 0.013 -0.004 -1.038
432 3 24.874 2.522 29.902 -0.023 0.003 -0.002 -1.121
438 1 22.482 2.128 26.083 -0.001 0.000 -0.004 2.253
440 1 22.302 2.194 35.454 0.001 0.000 0.003 2.156
443 1 21.237 0.388 22.910 0.004 0.001 0.002 2.276
444 1 24.695 1.882 23.189 0.003 0.001 -0.003 2.122
446 1 24.115 2.153 32.013 -0.005 0.000 -0.001 2.252
448 1 24.502 2.487 41.278 -0.001 0.004 -0.002 2.241
451 2 20.178 2.057 19.185 0.000 0.000 0.000 1.652
452 1 23.654 0.697 20.057 0.000 0.000 0.000 2.203
453 1 20.346 1.958 29.180 0.000 -0.005 -0.002 2.250
455 1 20.232 2.040 38.560 0.005 -0.001 -0.003 2.221
459 3 22.396 6.231 19.569 0.000 0.000 0.000 -1.072
460 3 20.726 2.344 27.160 -0.009 -0.006 -0.001 -1.167
461 3 24.672 6.329 30.329 -0.003 -0.013 0.016 -1.167
462 3 19.091 3.952 37.804 0.004 -0.005 -0.006 -1.248
463 3 22.362 5.923 37.707 0.010 -0.005 -0.001 -1.293
466 3 19.904 5.946 22.004 -0.002 0.005 0.005 -1.253
467 3 23.042 4.803 21.945 -0.014 0.014 -0.003 -1.025
468 3 20.957 5.773 31.302 -0.015 0.004 0.013 -1.032
469 3 23.103 3.917 31.264 -0.007 -0.006 0.001 -1.167
471 3 24.898 5.505 39.557 0.001 0.009 -0.002 -1.040
474 3 21.756 3.916 25.253 -0.006 -0.013 -0.003 -1.262
475 3 24.436 5.260 25.326 0.010 0.002 0.001 -1.119
476 3 21.261 4.089 34.710 0.009 0.004 -0.018 -1.067
480 3 19.486 4.221 24.057 -0.007 -0.005 -0.015 -1.134
481 3 22.112 5.854 24.135 -0.006 0.000 0.005 -1.199
482 3 20.686 6.024 26.954 0.013 -0.011 -0.002 -1.155
483 3 23.728 3.660 27.222 0.018 -0.005 0.015 -1.216
484 3 20.391 5.666 36.232 0.006 0.003 0.001 -1.136
485 3 22.321 2.230 38.697 -0.012 0.000 0.007 -0.830
486 3 17.339 4.037 41.079 -0.008 -0.009 0.010 -1.146
487 3 22.559 5.980 41.829 -0.005 -0.008 0.000 -1.131
492 3 19.180 4.086 32.387 -0.001 0.000 -0.003 -1.250
493 3 22.200 6.376 33.373 0.008 0.011 -0.004 -1.104
494 3 21.183 4.279 19.663 0.000 0.000 0.000 -1.034
495 3 24.817 5.508 20.070 0.000 0.000 0.000 -1.116
496 3 21.238 4.091 28.845 0.000 -0.019 -0.007 -0.952
498 3 20.753 4.107 39.596 0.005 -0.006 0.004 -1.057
502 1 19.678 4.015 26.292 0.001 0.004 -0.005 2.236
503 1 22.629 5.852 26.265 -0.002 -0.000 0.007 2.272
504 1 19.156 3.859 35.462 0.002 0.002 0.000 2.171
505 1 22.277 6.114 35.317 -0.006 0.002 -0.000 2.261
508 1 21.418 4.031 23.345 0.006 0.005 -0.002 2.233
509 1 24.715 5.760 23.211 0.005 -0.001 -0.007 2.155
510 1 21.174 3.899 32.385 0.002 0.002 0.006 2.279
511 1 24.279 5.886 32.188 -0.003 0.006 0.002 2.090
512 1 21.319 4.149 41.587 0.001 -0.003 -0.003 2.325
513 1 24.661 6.093 41.579 0.002 -0.001 0.002 2.363
516 1 20.403 6.034 20.157 0.000 0.000 0.000 2.377
517 1 23.352 3.966 19.998 0.000 0.000 0.000 2.298
518 1 20.257 5.996 29.124 -0.000 0.004 0.001 2.253
519 1 23.431 4.144 29.034 -0.004 0.003 0.005 2.321
520 1 20.282 5.746 38.301 -0.003 -0.001 -0.001 2.249
521 1 23.508 4.113 38.229 0.000 0.003 -0.002 2.002
524 3 25.592 0.122 19.242 0.000 0.000 0.000 -1.080
589 3 24.997 2.634 19.510 0.000 0.000 0.000 -1.045
2080 3 0.080 7.586 18.848 0.000 0.000 0.000 -1.106
2081 3 2.664 8.225 19.641 0.000 0.000 0.000 -0.954
2083 3 4.751 10.874 27.389 -0.009 0.011 -0.006 -0.920
2085 3 1.711 11.274 38.218 0.007 -0.009 0.000 -0.936
2088 3 1.251 9.796 21.805 -0.002 0.001 0.005 -1.077
2089 3 4.252 8.196 21.937 0.007 0.007 -0.003 -1.095
2090 3 1.643 9.526 31.349 0.004 -0.000 0.011 -1.033
2091 3 4.314 7.500 31.343 0.000 0.003 0.002 -1.115
2092 3 0.818 9.616 40.861 0.010 -0.001 0.001 -1.113
2093 3 4.979 6.079 39.655 0.001 -0.001 0.007 -1.137
2096 3 2.245 7.934 25.713 -0.003 -0.008 -0.002 -1.282
2097 3 5.198 9.963 25.236 0.003 -0.010 -0.014 -1.013
2098 3 1.429 8.260 34.312 0.001 -0.012 0.004 -1.063
2099 3 6.231 9.010 34.719 0.011 0.005 -0.007 -1.136
2103 3 2.939 9.563 23.437 -0.001 -0.003 0.001 -1.092
2105 3 4.592 7.961 26.488 0.004 -0.003 0.005 -1.150
2107 3 3.701 9.485 37.608 -0.006 -0.016 -0.001 -1.155
2115 3 3.008 9.599 33.274 -0.003 0.008 0.003 -1.012
2116 3 1.883 7.109 20.988 0.000 0.000 0.000 -0.964
2117 3 5.332 9.411 19.736 0.000 0.000 0.000 -1.088
2118 3 3.259 9.548 28.527 0.009 0.009 0.002 -1.221
2119 3 5.389 9.385 29.587 0.002 -0.002 -0.009 -1.145
2120 3 2.737 8.191 39.692 0.017 -0.018 -0.012 -1.088
2121 3 5.548 8.859 39.151 0.000 0.007 0.006 -1.173
2125 1 3.382 9.644 26.394 0.000 -0.001 0.001 2.290
2127 1 2.795 9.361 35.578 0.004 0.001 0.000 2.169
2130 1 2.149 7.900 22.956 -0.001 -0.002 -0.000 2.238
2131 1 5.487 9.527 23.210 0.003 -0.002 -0.004 2.068
2132 1 2.376 7.625 32.409 -0.000 0.005 -0.001 2.058
2133 2 5.405 9.329 32.474 -0.002 -0.004 0.004 1.643
2134 1 2.191 7.506 41.717 0.002 0.000 0.002 2.199
2135 1 5.375 9.531 41.368 0.001 0.003 0.001 2.314
2138 1 0.977 9.496 19.852 0.000 0.000 0.000 2.209
2139 1 4.366 7.432 20.081 0.000 0.000 0.000 2.324
2140 1 1.206 9.369 29.294 0.001 0.002 -0.003 2.226
2141 1 4.271 7.726 29.156 -0.003 -0.007 -0.001 2.279
2142 1 0.975 9.291 38.686 -0.003 -0.005 0.006 2.277
2143 1 4.228 7.702 38.271 0.001 -0.004 -0.005 2.459
2146 3 0.022 11.240 19.029 0.000 0.000 0.000 -1.040
2147 3 3.170 13.236 19.491 0.000 0.000 0.000 -1.037
2149 3 2.948 12.832 28.462 0.011 0.001 0.003 -1.073
2151 3 3.492 13.000 37.431 0.003 0.006 0.005 -1.218
2154 3 1.121 12.626 22.114 -0.001 -0.008 0.001 -1.216
2155 3 4.405 11.346 22.253 0.006 0.005 0.003 -1.128
2156 3 0.665 12.821 31.371 0.013 -0.001 -0.005 -1.122
2157 3 5.334 11.449 31.419 0.021 0.004 0.002 -0.978
2159 3 4.718 7.699 41.909 -0.000 0.001 0.003 -1.106
2162 3 2.098 11.009 25.268 0.010 -0.008 0.009 -1.119
2163 3 5.295 13.568 25.245 0.004 0.003 0.004 -1.062
2164 3 2.154 11.473 34.980 -0.005 0.000 -0.008 -1.105
2165 3 5.508 13.043 34.935 -0.005 -0.002 0.002 -1.201
2169 3 3.003 13.289 23.267 0.012 0.004 0.005 -1.249
2172 3 4.484 10.939 35.609 0.004 -0.018 0.014 -0.992
2180 3 3.426 12.572 32.861 0.016 0.003 -0.005 -1.107
2181 3 2.388 10.949 19.611 0.000 0.000 0.000 -1.064
2182 3 5.581 12.872 19.891 0.000 0.000 0.000 -1.141
2183 3 2.287 11.406 30.378 0.002 -0.016 -0.001 -1.054
2184 3 6.512 15.133 28.562 0.012 -0.003 0.002 -1.181
2185 3 2.289 12.033 39.939 -0.007 0.002 -0.013 -0.991
2186 3 5.212 13.460 39.054 -0.003 0.003 -0.003 -0.994
2190 2 3.049 13.416 26.137 -0.004 -0.006 -0.004 1.670
2192 1 3.470 13.023 35.420 0.000 -0.003 0.001 2.224
2195 1 2.131 11.424 23.148 0.003 0.007 -0.001 2.336
2196 1 5.383 13.141 23.227 0.001 -0.004 0.002 2.069
2197 1 1.975 11.463 32.512 0.001 -0.003 0.000 2.336
2198 1 5.372 13.057 32.680 0.002 0.005 -0.003 2.384
2199 1 1.841 11.337 41.858 -0.000 -0.004 0.002 2.243
2200 1 5.071 13.081 41.351 -0.005 -0.006 0.001 2.356
2203 1 1.045 12.961 19.923 0.000 0.000 0.000 2.087
2204 1 4.396 11.329 20.041 0.000 0.000 0.000 2.090
2205 1 1.069 12.983 29.165 0.001 -0.002 -0.001 2.197
2206 1 4.246 11.359 29.464 -0.001 -0.005 -0.002 2.228
2207 1 1.024 13.120 38.640 -0.003 0.002 0.002 2.310
2208 1 4.200 11.429 38.417 -0.003 -0.004 0.001 2.295
2211 3 6.518 7.309 19.536 0.000 0.000 0.000 -1.090
2212 3 9.572 9.336 18.992 0.000 0.000 0.000 -1.107
2213 3 6.109 7.227 28.290 -0.003 -0.001 0.002 -1.217
2214 3 8.924 10.617 30.496 -0.010 0.002 -0.003 -1.096
2215 3 6.249 7.301 37.408 -0.002 -0.007 0.004 -1.236
2216 3 9.721 9.876 38.273 0.002 -0.007 -0.023 -1.103
2219 3 7.504 9.224 22.058 -0.002 0.000 -0.004 -1.109
2220 3 11.117 7.617 23.014 0.012 -0.001 -0.006 -1.087
2221 3 7.650 8.689 31.413 0.011 0.005 0.003 -1.069
2222 3 10.376 6.890 31.337 0.003 -0.004 0.006 -0.957
2223 3 7.222 9.054 40.964 0.004 0.008 0.004 -1.163
2224 3 10.822 7.600 41.489 -0.000 0.005 -0.010 -1.101
2227 3 8.453 8.006 25.161 0.001 -0.005 -0.009 -1.129
2228 3 12.168 9.424 25.371 0.010 -0.010 -0.010 -1.054
2229 3 8.314 7.304 34.795 -0.001 0.000 0.002 -1.273
2230 3 11.174 10.473 35.356 -0.015 -0.000 0.003 -0.939
2233 3 6.142 7.411 24.151 -0.005 -0.009 0.016 -1.216
2234 3 9.910 9.570 23.892 -0.003 0.004 0.005 -1.052
2235 3 7.624 8.955 27.439 0.009 -0.000 0.014 -1.064
2236 3 10.668 7.699 26.462 0.009 0.001 0.005 -0.981
2237 3 7.850 9.450 36.746 -0.015 0.006 0.011 -1.170
2238 3 10.669 7.678 36.270 0.022 -0.001 -0.001 -1.187
2240 3 9.349 9.485 42.183 -0.000 0.002 0.000 -1.256
2245 3 6.958 6.485 32.062 -0.010 -0.019 -0.013 -0.825
2246 3 10.156 8.786 33.477 0.007 0.011 -0.001 -1.036
2247 3 8.949 7.610 20.784 0.000 0.000 0.000 -1.164
2248 3 12.070 8.837 20.735 0.000 0.000 0.000 -1.103
2249 3 8.546 7.699 29.452 -0.002 -0.001 0.011 -0.930
2250 3 8.635 7.488 39.437 -0.002 -0.005 -0.001 -1.242
2251 3 12.127 8.713 39.350 0.000 0.009 -0.005 -1.208
2254 1 6.660 7.562 26.147 -0.006 -0.001 -0.005 2.263
2255 1 10.158 9.554 25.991 0.001 -0.005 -0.001 2.178
2256 1 6.355 7.237 35.399 0.006 -0.001 0.002 2.307
2257 1 9.512 9.218 35.562 0.002 -0.000 0.000 2.278
2260 1 8.733 7.560 23.167 -0.003 0.002 0.000 2.147
2261 1 11.871 9.481 22.669 -0.001 -0.001 -0.000 2.289
2262 1 8.768 7.501 32.592 -0.007 0.002 0.002 2.148
2263 2 11.872 9.829 32.363 -0.000 -0.002 -0.003 1.687
2264 1 8.758 7.733 41.666 0.002 0.000 -0.000 2.377
2265 1 12.033 9.482 41.283 -0.000 0.003 0.001 2.114
2268 1 7.585 9.207 19.958 0.000 0.000 0.000 2.148
2269 1 10.717 7.534 19.765 0.000 0.000 0.000 2.132
2270 1 7.490 9.495 29.533 0.003 0.006 0.004 2.320
2271 2 10.893 7.668 29.022 -0.002 0.006 -0.003 1.764
2272 1 7.479 9.423 38.712 0.008 -0.008 -0.001 2.239
2273 1 10.510 7.693 38.600 0.001 0.003 -0.003 2.107
2276 3 7.643 11.249 20.014 0.000 0.000 0.000 -0.892
2277 3 11.348 13.113 19.059 0.000 0.000 0.000 -1.015
2278 3 7.557 11.319 28.940 -0.006 -0.001 -0.002 -1.124
2279 3 9.902 13.109 28.591 -0.005 0.005 -0.002 -1.216
2280 3 6.262 11.549 37.599 -0.007 -0.010 -0.006 -1.078
2281 3 8.075 15.067 39.229 -0.017 0.020 0.002 -1.112
2284 3 8.090 13.543 21.777 -0.002 -0.009 0.001 -1.165
2285 3 10.686 10.503 21.366 0.000 0.000 0.000 -1.088
2286 3 6.776 11.704 33.304 0.007 0.004 -0.009 -1.091
2287 3 7.521 13.044 31.312 0.006 0.004 -0.020 -1.178
2288 3 6.984 13.603 40.573 0.001 0.008 0.005 -1.121
2289 3 10.791 11.180 40.749 0.001 0.008 0.012 -1.154
2292 3 9.366 11.504 25.809 0.019 0.009 -0.013 -1.055
2293 3 11.618 12.988 25.321 0.006 0.010 0.004 -1.124
2294 3 8.482 10.521 34.269 -0.003 -0.011 -0.001 -1.016
2295 3 11.808 13.296 34.449 -0.004 -0.004 -0.008 -1.224
2298 3 6.490 11.458 23.337 -0.006 0.001 0.008 -1.059
2299 3 9.884 13.831 24.013 0.002 -0.007 0.002 -1.027
2300 3 7.770 13.250 26.293 0.003 -0.004 0.016 -1.010
2301 3 10.960 10.499 27.585 0.001 -0.001 -0.011 -1.217
2302 3 8.096 12.464 35.991 0.000 -0.001 0.004 -0.922
2303 3 10.345 11.495 36.627 -0.008 -0.000 -0.004 -0.967
2304 3 6.255 11.231 42.238 -0.009 -0.002 0.010 -1.173
2305 3 8.867 13.057 42.605 -0.007 -0.000 -0.014 -1.279
2310 3 10.673 11.885 31.662 0.003 -0.003 0.002 -1.141
2311 3 8.887 11.933 18.888 0.000 0.000 0.000 -0.840
2312 3 11.404 13.368 21.411 0.000 0.000 0.000 -1.140
2313 3 5.358 13.121 29.469 -0.020 -0.007 -0.007 -1.057
2314 3 13.662 12.901 31.763 -0.004 0.004 -0.003 -1.181
2315 3 7.855 11.167 39.722 -0.002 -0.004 0.005 -1.259
2316 3 9.599 13.062 39.360 0.008 -0.011 -0.012 -1.157
2318 2 7.039 10.992 26.498 -0.007 0.000 0.002 1.710
2319 1 9.877 13.474 26.333 0.005 0.002 0.000 2.181
2320 1 6.603 11.010 35.506 0.001 -0.003 -0.002 2.328
2321 1 9.846 13.121 35.429 0.002 -0.001 -0.007 2.238
2324 2 8.775 11.352 22.785 0.006 0.004 0.001 1.679
2325 1 11.864 13.323 23.211 -0.000 0.002 0.001 2.325
2326 1 8.575 11.658 32.368 0.003 0.001 -0.001 2.270
2327 1 11.777 13.746 32.384 -0.005 -0.003 -0.001 2.197
2328 1 8.502 11.209 41.601 -0.002 0.002 0.004 2.205
2329 2 11.470 13.329 41.795 0.001 -0.002 -0.001 1.651
2332 1 7.668 13.405 19.823 0.000 0.000 0.000 2.191
2333 1 10.750 11.063 19.356 0.000 0.000 0.000 2.106
2334 1 7.665 13.345 29.393 -0.001 0.001 0.002 2.193
2335 1 10.856 11.605 29.542 -0.002 -0.003 -0.002 2.133
2336 1 7.653 12.980 38.699 -0.001 0.003 -0.000 2.343
2337 1 10.872 11.495 38.620 -0.002 -0.002 0.000 2.151
2340 3 12.823 7.387 18.914 0.000 0.000 0.000 -1.107
2341 3 16.304 9.456 19.283 0.000 0.000 0.000 -1.094
2342 3 13.213 6.350 27.657 -0.001 0.006 -0.002 -1.187
2343 3 15.918 9.911 28.325 -0.008 -0.003 -0.003 -1.130
2344 3 11.273 4.623 36.388 0.001 -0.005 0.000 -1.141
2345 3 16.250 9.377 37.924 -0.004 -0.006 -0.008 -1.291
2348 3 13.822 9.114 23.158 0.005 -0.003 0.000 -1.111
2349 3 17.557 7.128 21.816 0.001 0.012 0.007 -0.983
2350 3 13.594 8.802 31.272 0.002 -0.004 -0.023 -1.059
2351 3 18.502 6.229 30.483 0.001 -0.008 0.002 -1.113
2352 3 14.183 8.999 40.368 0.003 0.010 -0.000 -1.288
2353 3 17.285 7.777 41.736 0.005 -0.009 0.011 -1.167
2356 3 15.177 7.782 25.582 -0.009 -0.009 -0.003 -1.116
2357 3 16.679 10.308 24.370 -0.005 0.004 0.003 -0.980
2358 3 14.846 7.851 34.393 -0.000 -0.008 -0.012 -1.047
2359 3 18.312 9.333 34.622 -0.004 0.018 -0.005 -1.137
2362 3 13.344 6.743 24.040 -0.009 -0.003 -0.018 -1.093
2363 3 16.678 8.474 22.901 -0.002 -0.010 -0.009 -0.890
2364 3 13.643 9.073 27.372 0.003 0.003 0.002 -0.984
2365 3 19.112 7.860 28.200 -0.008 0.007 0.006 -1.143
2366 3 14.256 9.879 36.226 -0.010 0.013 0.008 -1.259
2367 3 16.641 7.466 36.015 -0.003 0.000 0.006 -1.099
2368 3 13.070 8.122 42.639 -0.007 0.007 -0.005 -0.972
2369 3 15.458 9.576 43.068 -0.006 -0.010 0.011 -1.057
2374 3 12.856 6.608 33.135 -0.002 0.009 -0.013 -1.006
2375 3 16.898 7.662 32.111 -0.016 -0.004 0.003 -1.068
2376 3 14.852 7.894 20.624 0.000 0.000 0.000 -1.098
2377 3 18.307 9.701 20.947 0.000 0.000 0.000 -1.027
2378 3 16.140 5.947 28.529 0.002 0.018 -0.005 -1.249
2379 3 17.952 9.336 29.981 0.017 -0.010 -0.007 -1.158
2380 3 15.750 6.626 39.951 0.001 -0.017 0.002 -1.171
2381 3 18.597 9.059 39.558 -0.000 0.004 0.007 -1.130
2384 1 13.160 7.582 25.926 0.004 -0.001 -0.002 2.273
2385 1 16.406 9.654 26.243 -0.002 0.001 -0.004 2.304
2386 2 12.861 7.043 35.709 0.000 -0.001 -0.005 1.672
2387 1 15.903 9.363 35.349 0.001 0.003 -0.003 2.291
2390 1 14.831 7.549 22.672 -0.007 -0.002 0.002 2.278
2391 1 18.346 9.571 23.148 -0.002 0.000 0.006 2.243
2392 1 14.638 7.514 32.370 0.000 -0.000 0.004 2.348
2393 1 17.919 9.507 32.260 0.006 -0.001 0.001 2.220
2394 1 15.084 7.798 41.534 0.002 0.001 -0.005 2.299
2395 1 18.543 9.482 41.845 0.006 -0.008 0.001 2.331
2398 1 14.056 9.230 19.403 0.000 0.000 0.000 2.043
2399 1 17.262 7.698 19.899 0.000 0.000 0.000 2.200
2400 1 14.124 9.893 29.384 -0.005 0.006 0.001 2.260
2401 1 17.250 7.572 29.084 -0.001 0.001 0.000 2.232
2402 1 14.032 9.440 38.465 0.006 -0.000 0.001 2.278
2403 1 16.811 7.384 38.347 -0.002 -0.003 0.002 2.101
2406 3 12.752 10.831 18.766 0.000 0.000 0.000 -1.091
2407 3 16.058 13.344 19.325 0.000 0.000 0.000 -1.056
2408 3 12.043 9.754 29.882 0.008 0.002 -0.001 -1.033
2409 3 15.679 13.135 28.836 -0.001 -0.002 -0.004 -1.316
2410 3 12.986 11.308 37.915 -0.017 -0.002 0.000 -1.328
2411 3 15.040 11.296 39.621 -0.021 0.001 -0.013 -1.164
2414 3 13.939 13.742 23.084 -0.010 0.004 -0.006 -1.006
2415 3 17.054 11.644 22.332 0.010 -0.018 0.004 -1.059
2416 3 15.498 10.856 30.521 0.001 -0.005 0.005 -1.122
2417 3 17.432 11.536 31.986 0.007 0.007 0.008 -1.083
2418 3 13.661 12.640 41.173 -0.001 0.019 0.000 -1.017
2422 3 14.964 11.199 26.275 -0.003 0.005 0.004 -1.003
2423 3 17.471 13.545 25.152 -0.005 -0.000 -0.005 -1.081
2424 3 16.078 10.034 33.385 -0.001 0.011 -0.014 -1.155
2425 3 18.013 13.421 34.964 0.007 -0.008 0.000 -1.225
2428 3 12.673 11.322 23.430 -0.011 0.003 0.002 -1.051
2429 3 15.141 15.170 25.348 -0.005 0.005 0.007 -1.163
2430 3 13.317 15.083 28.358 0.000 -0.004 -0.009 -1.035
2431 3 17.307 11.949 27.069 0.003 0.008 -0.004 -1.161
2432 3 13.971 13.123 35.930 0.003 0.006 -0.005 -1.139
2433 3 16.620 11.451 35.766 0.007 -0.004 -0.000 -1.160
2435 3 15.756 13.015 42.643 -0.014 -0.008 0.003 -1.202
2440 3 13.695 10.779 33.835 -0.004 0.005 0.001 -1.058
2441 3 15.880 13.396 33.227 0.006 0.015 0.000 -1.264
2442 3 14.975 11.137 19.932 0.000 0.000 0.000 -0.994
2443 3 18.140 13.485 20.932 0.000 0.000 0.000 -1.081
2444 3 13.441 11.717 28.837 0.000 -0.004 0.003 -1.252
2445 3 18.009 13.052 29.688 -0.006 -0.001 0.006 -1.130
2446 3 17.010 10.812 41.039 0.001 -0.007 -0.007 -1.129
2447 3 17.578 12.854 39.630 0.005 0.009 -0.012 -1.167
2450 1 12.826 11.329 26.606 0.001 0.002 0.002 2.045
2451 1 15.987 13.358 26.455 0.001 0.004 -0.003 2.228
2452 1 13.028 11.296 35.766 0.002 0.005 0.001 2.247
2453 1 16.053 13.617 35.746 0.000 0.003 0.000 2.231
2456 2 14.889 11.395 23.128 0.000 0.003 0.001 1.696
2457 1 18.122 13.174 23.279 -0.001 -0.002 -0.002 2.257
2458 1 15.175 11.674 32.527 0.000 -0.000 -0.001 2.214
2459 1 18.302 13.247 32.736 -0.001 -0.006 0.005 2.139
2460 1 15.101 11.314 41.900 0.004 -0.003 0.002 2.311
2461 1 18.454 13.370 41.377 -0.006 -0.000 0.003 2.210
2464 2 13.797 12.979 18.821 0.000 0.000 0.000 1.649
2465 1 17.035 11.422 20.031 0.000 0.000 0.000 2.095
2466 1 13.882 13.502 29.673 -0.004 0.004 -0.004 2.285
2467 1 17.065 11.578 29.013 -0.001 0.001 -0.003 2.390
2468 1 14.005 12.960 39.033 0.001 0.000 0.003 2.222
2469 1 17.231 10.837 38.963 -0.001 0.006 0.001 2.212
2472 3 19.397 7.899 19.465 0.000 0.000 0.000 -1.039
2473 3 22.611 9.435 19.762 0.000 0.000 0.000 -1.060
2474 3 22.453 5.883 28.363 -0.007 -0.017 0.004 -1.246
2475 3 20.890 9.870 27.567 0.007 -0.004 -0.006 -0.951
2476 3 18.370 5.942 39.517 0.005 -0.005 -0.001 -1.047
2477 3 22.235 9.281 37.831 -0.009 0.008 -0.004 -1.197
2480 3 20.508 9.957 22.242 -0.013 -0.014 0.008 -1.126
2481 3 23.913 7.539 22.157 0.003 -0.010 -0.009 -1.204
2482 3 22.000 9.660 33.481 0.000 0.006 -0.003 -1.304
2483 3 24.652 9.519 34.622 -0.001 0.000 -0.008 -1.183
2484 3 20.495 9.641 41.039 -0.005 0.010 0.000 -1.145
2485 3 23.594 11.589 40.453 0.001 -0.001 0.004 -1.317
2488 3 21.136 8.251 25.465 0.009 -0.003 0.006 -1.138
2490 3 21.167 7.883 35.218 -0.006 0.004 0.012 -1.274
2494 3 19.406 8.062 23.931 0.005 0.002 -0.006 -1.257
2495 3 22.638 9.206 23.840 0.016 0.001 -0.013 -1.083
2496 3 18.520 9.766 26.393 -0.003 -0.006 -0.002 -1.201
2497 3 23.696 7.678 26.210 -0.008 -0.003 -0.009 -1.185
2498 3 18.755 7.430 37.488 0.008 0.003 -0.005 -1.086
2499 3 23.330 8.246 36.079 -0.009 0.007 -0.002 -1.136
2506 3 19.472 7.119 33.380 0.003 0.011 0.001 -1.077
2507 3 20.155 10.059 36.560 0.001 -0.007 0.008 -1.080
2508 3 21.180 7.624 21.207 0.000 0.000 0.000 -1.037
2509 3 24.830 9.960 21.066 0.000 0.000 0.000 -1.175
2510 3 21.041 7.882 30.016 0.004 -0.001 -0.005 -1.451
2511 3 23.449 9.223 28.200 0.007 -0.000 0.019 -1.075
2512 3 20.971 7.693 39.323 0.002 -0.006 0.013 -1.122
2513 3 24.525 9.831 38.926 -0.004 0.008 0.007 -1.214
2516 1 19.460 7.694 25.998 0.000 -0.002 -0.003 2.314
2517 1 22.742 9.619 26.206 0.006 0.001 0.001 2.186
2518 1 19.141 7.484 35.352 -0.003 0.000 -0.004 2.307
2519 1 21.979 9.520 35.312 0.001 0.006 0.001 2.463
2522 1 21.507 7.626 23.272 -0.001 0.005 -0.004 2.220
2523 1 24.729 9.388 23.155 -0.002 -0.002 -0.003 2.277
2524 1 21.187 7.821 32.092 0.003 0.004 0.001 2.313
2525 1 24.432 9.452 32.320 -0.004 0.004 -0.003 2.306
2526 1 21.225 7.674 41.620 -0.004 -0.003 -0.002 2.287
2527 1 24.475 9.553 41.084 -0.005 -0.002 -0.001 2.288
2530 1 20.420 9.726 20.230 0.000 0.000 0.000 2.192