ITEM: TIMESTEP
20000
ITEM: NUMBER OF ATOMS
37374
ITEM: BOX BOUNDS pp pp pp
0.000000 102.779942
0.000000 118.660062
0.000000 130.735200
ITEM: ATOMS id type x y z vx vy vz q
2 3 3.194 2.308 19.117 0.000 0.000 0.000 -1.063
4 3 3.722 2.069 28.973 0.003 0.004 0.005 -1.118
6 3 3.154 2.253 38.313 0.008 -0.012 -0.004 -0.969
9 3 1.660 1.877 21.991 0.002 0.010 -0.001 -1.114
11 3 1.703 1.844 31.568 -0.008 -0.004 0.008 -1.323
13 3 0.789 1.802 41.478 0.009 -0.007 0.003 -0.959
17 3 0.910 0.635 24.615 0.015 -0.005 0.005 -1.056
18 3 5.908 1.861 25.629 -0.005 0.006 0.007 -1.082
20 3 5.618 2.190 34.621 -0.003 -0.017 0.001 -1.116
24 3 3.501 2.019 23.647 0.011 0.006 0.012 -1.056
25 3 1.393 1.388 27.250 -0.006 -0.004 -0.006 -0.949
30 3 3.293 1.902 42.892 0.009 0.015 -0.003 -0.974
36 3 3.474 2.352 33.265 -0.003 -0.002 -0.008 -1.326
37 3 1.881 0.228 19.742 0.000 0.000 0.000 -1.194
38 3 5.513 1.819 19.848 0.000 0.000 0.000 -1.044
40 3 5.558 2.075 30.119 0.015 0.000 0.012 -1.053
42 3 5.114 2.311 39.628 -0.005 0.011 -0.002 -1.006
46 2 3.256 2.127 26.015 0.007 -0.004 0.006 1.694
48 1 3.265 2.084 35.249 0.000 -0.006 -0.002 2.383
52 1 5.425 1.826 22.832 -0.002 -0.000 0.000 2.178
54 1 5.267 2.048 32.289 0.003 0.001 0.005 2.187
56 1 5.157 2.015 41.908 0.000 -0.001 0.005 2.309
59 1 1.108 2.215 19.775 0.000 0.000 0.000 2.150
60 1 4.018 0.309 19.738 0.000 0.000 0.000 2.256
61 1 1.272 1.926 29.283 0.008 0.002 -0.001 2.141
63 1 0.956 1.793 38.151 -0.002 0.002 -0.001 2.174
67 3 0.086 4.021 19.084 0.000 0.000 0.000 -1.091
68 3 3.421 5.669 19.058 0.000 0.000 0.000 -1.078
70 3 3.256 5.936 28.477 0.012 0.005 0.002 -1.310
72 3 2.535 6.358 37.117 -0.001 0.003 -0.000 -1.185
76 3 4.608 3.379 21.888 -0.004 0.001 0.004 -1.100
77 3 1.359 5.360 31.495 0.008 0.013 0.008 -1.230
78 3 4.286 4.129 31.671 0.001 0.008 -0.014 -1.190
79 3 0.811 6.659 40.375 0.001 -0.006 -0.008 -1.105
80 3 4.536 3.951 41.976 -0.013 -0.002 0.006 -1.040
83 3 1.697 4.733 26.672 0.003 -0.004 -0.003 -1.082
84 3 4.994 5.074 24.936 -0.005 -0.009 -0.006 -1.044
85 3 2.197 4.026 34.513 0.009 0.012 0.007 -1.163
86 3 5.199 5.747 35.178 0.003 0.003 0.003 -1.191
89 3 2.773 4.295 24.915 -0.003 -0.011 0.007 -0.870
90 3 3.492 5.784 23.091 0.002 -0.008 -0.009 -1.030
92 3 4.706 4.154 27.336 -0.003 -0.004 0.007 -1.063
94 3 3.576 3.911 36.277 0.012 -0.003 -0.007 -1.218
96 3 3.438 6.292 42.430 0.010 0.013 0.003 -1.139
102 3 3.615 5.951 33.299 -0.007 0.007 0.001 -1.098
103 3 1.960 4.014 20.727 0.000 0.000 0.000 -1.096
104 3 5.058 5.763 20.991 0.000 0.000 0.000 -1.042
105 3 2.083 3.842 29.951 -0.003 0.008 -0.008 -1.208
106 3 5.383 5.463 30.176 0.004 0.003 0.004 -1.082
107 3 2.706 4.633 39.348 -0.009 -0.007 0.006 -0.984
108 3 4.968 5.799 38.888 -0.009 0.004 -0.006 -1.161
112 1 3.348 5.748 26.258 0.004 0.001 -0.006 2.332
114 1 3.246 5.658 35.371 -0.001 -0.006 0.004 2.450
117 1 2.345 3.697 22.823 -0.003 -0.000 0.001 2.169
118 1 5.651 5.560 23.191 -0.002 0.001 -0.004 2.390
119 1 2.252 3.661 32.348 0.004 0.001 -0.001 2.394
120 1 5.456 5.470 32.486 0.002 -0.000 0.005 2.347
121 2 2.325 3.787 41.512 -0.000 0.003 -0.001 1.669
122 1 5.438 5.944 42.094 -0.002 0.003 0.002 2.307
125 1 1.243 5.880 19.517 0.000 0.000 0.000 2.102
126 1 4.463 3.941 19.823 0.000 0.000 0.000 2.149
127 1 1.222 5.704 29.175 0.001 0.007 0.001 2.314
128 1 4.042 3.915 29.305 -0.003 -0.000 -0.001 2.233
129 1 1.114 5.668 38.386 0.004 -0.001 0.005 2.283
130 1 4.385 3.832 38.145 -0.001 -0.001 -0.004 2.274
134 3 9.828 2.071 19.444 0.000 0.000 0.000 -1.089
136 3 9.321 1.264 29.139 -0.009 0.005 0.006 -0.814
138 3 9.887 2.624 37.203 0.006 0.000 -0.005 -1.242
141 3 7.266 0.943 21.666 -0.003 0.006 -0.001 -1.176
143 3 7.168 2.364 31.571 0.003 -0.004 -0.007 -0.968
144 3 11.535 1.408 30.565 0.005 0.000 -0.008 -1.027
145 3 7.005 2.066 41.156 -0.002 -0.002 0.005 -1.282
150 3 11.717 2.211 25.376 -0.013 0.001 0.006 -1.148
152 3 11.468 1.716 34.661 0.002 -0.010 -0.001 -1.249
156 3 9.572 2.054 23.648 -0.010 -0.000 -0.000 -1.145
157 3 7.821 2.137 27.006 0.010 0.007 0.007 -1.142
159 3 7.451 1.439 36.793 0.003 -0.010 -0.011 -1.219
162 3 9.442 1.235 42.993 -0.004 0.001 0.003 -1.002
168 3 9.467 2.270 33.187 -0.005 0.000 -0.007 -1.220
169 3 8.337 0.112 19.404 0.000 0.000 0.000 -1.102
170 3 11.991 2.067 20.912 0.000 0.000 0.000 -1.079
173 3 11.269 2.475 38.974 -0.007 0.004 -0.003 -1.044
177 1 9.688 1.846 25.762 -0.005 0.000 0.002 2.220
179 1 9.457 1.977 35.471 -0.003 0.001 -0.001 2.238
183 1 11.797 2.289 22.984 -0.003 0.006 -0.003 2.158
185 1 11.543 2.177 32.529 0.005 0.002 -0.003 2.204
187 2 11.595 1.743 41.843 0.005 -0.000 -0.002 1.670
190 1 7.618 2.008 20.016 0.000 0.000 0.000 2.228
192 1 7.065 1.875 28.823 -0.003 -0.004 -0.003 2.197
194 1 7.118 1.774 38.734 -0.001 -0.002 -0.003 2.199
198 3 6.608 4.036 19.356 0.000 0.000 0.000 -1.065
199 3 9.667 5.592 19.337 0.000 0.000 0.000 -1.148
200 3 6.985 4.057 28.295 -0.001 -0.003 -0.013 -1.168
201 3 8.944 5.810 27.835 0.003 -0.003 0.009 -1.088
202 3 6.184 3.684 37.400 0.006 -0.001 -0.000 -1.305
203 3 9.949 5.613 37.437 0.013 0.001 0.000 -1.065
206 3 7.274 5.686 22.187 -0.001 -0.004 0.002 -1.257
207 3 10.886 4.006 22.271 0.003 0.001 0.002 -1.430
208 3 7.395 5.785 31.443 0.005 0.004 0.001 -1.170
209 3 11.280 3.932 31.567 0.000 -0.000 -0.010 -1.055
210 3 7.323 5.712 40.993 0.016 -0.000 0.004 -1.189
211 3 9.948 4.525 40.553 -0.005 -0.014 0.008 -1.133
214 3 8.738 3.645 25.075 -0.002 -0.004 0.001 -1.276
215 3 11.903 5.838 25.484 -0.004 -0.008 -0.003 -1.084
216 3 8.568 3.810 35.139 -0.009 -0.005 0.015 -1.402
217 3 12.843 3.818 33.159 -0.003 -0.006 0.011 -1.316
220 3 6.702 3.457 23.446 0.003 0.004 0.005 -1.099
221 3 9.484 5.890 23.645 -0.007 -0.002 -0.002 -1.194
222 3 7.317 5.803 25.666 -0.002 -0.009 0.009 -1.199
223 3 10.794 4.058 26.954 -0.003 -0.003 -0.006 -1.031
224 3 7.443 5.799 36.287 -0.010 -0.006 -0.013 -1.165
225 3 13.058 4.492 37.059 0.005 -0.012 0.005 -0.999
226 3 6.607 4.103 43.054 0.016 0.014 0.005 -1.022
227 3 9.855 5.731 42.453 -0.000 -0.003 -0.010 -1.004
231 3 6.530 3.978 33.421 0.004 0.010 -0.006 -1.323
232 3 9.750 5.251 32.807 -0.002 0.004 -0.006 -1.067
233 3 8.427 3.647 20.952 0.000 0.000 0.000 -1.275
234 3 11.762 5.978 20.872 0.000 0.000 0.000 -1.027
235 3 8.528 3.993 30.532 0.009 0.014 -0.005 -0.933
236 3 12.161 6.264 29.879 0.017 0.003 -0.002 -1.028
237 3 7.822 3.736 39.283 -0.009 -0.005 -0.008 -1.234
238 3 12.834 7.581 38.443 -0.008 0.000 -0.002 -1.115
241 1 6.617 3.735 26.107 0.002 -0.003 0.001 2.196
242 1 9.502 5.461 25.953 0.001 -0.002 0.000 2.193
243 1 6.515 3.917 35.495 -0.003 -0.002 0.001 2.280
244 1 9.410 5.563 35.208 -0.001 -0.001 -0.003 2.264
247 1 8.753 3.961 23.074 -0.001 0.003 -0.002 2.236
248 1 11.803 5.616 23.013 0.003 -0.003 -0.002 2.196
249 1 8.366 3.878 32.593 0.005 -0.006 -0.003 2.300
250 1 11.849 5.825 32.020 -0.001 0.001 0.003 2.072
251 1 8.099 3.741 41.629 0.005 -0.000 0.005 2.164
252 1 11.492 5.542 41.339 -0.005 0.000 -0.003 2.336
255 1 7.677 5.633 20.123 0.000 0.000 0.000 2.163
256 1 10.605 3.818 20.133 0.000 0.000 0.000 2.187
257 1 7.426 5.577 29.378 -0.002 -0.003 -0.001 2.309
258 2 10.588 3.320 29.270 0.007 -0.007 -0.003 1.703
259 1 7.117 5.658 38.682 0.001 -0.003 -0.001 2.175
260 1 10.004 3.996 38.632 0.004 -0.002 -0.000 2.292
263 3 12.537 0.171 19.265 0.000 0.000 0.000 -0.999
264 3 17.790 2.402 19.135 0.000 0.000 0.000 -1.138
266 3 16.212 2.162 28.272 -0.007 -0.001 -0.004 -1.220
270 3 13.827 1.374 22.107 0.013 -0.006 0.013 -1.090
272 3 14.453 2.159 31.388 -0.002 -0.001 0.001 -1.114
274 3 14.362 2.063 41.275 -0.009 -0.002 -0.003 -1.044
279 3 18.011 1.629 24.878 0.004 0.009 0.002 -1.080
281 3 17.994 1.663 35.395 -0.015 0.000 -0.005 -1.125
285 3 15.728 1.866 24.239 -0.022 -0.004 0.000 -1.055
286 3 14.185 2.425 26.453 -0.002 -0.008 0.002 -1.104
288 3 13.919 2.379 35.869 0.006 -0.008 -0.001 -1.168
291 3 16.107 1.842 42.218 -0.004 0.015 0.001 -1.153
297 3 16.119 2.241 33.264 0.003 0.001 -0.004 -1.176
298 3 15.041 0.456 19.380 0.000 0.000 0.000 -1.173
299 3 17.771 1.182 21.423 0.000 0.000 0.000 -0.884
301 3 18.300 1.464 30.214 0.008 0.011 0.001 -1.025
303 3 17.924 2.265 38.734 -0.021 0.003 0.001 -1.169
307 1 16.241 2.004 26.237 0.005 0.001 -0.003 2.303
309 1 15.974 2.048 35.290 -0.006 0.001 0.003 2.133
313 1 18.457 2.356 22.909 0.006 0.001 -0.002 2.422
315 1 18.006 2.091 32.171 -0.001 0.001 0.004 2.259
317 1 18.030 2.322 41.214 0.003 -0.006 -0.001 2.190
320 1 13.752 1.988 19.922 0.000 0.000 0.000 2.116
321 1 17.064 0.459 19.618 0.000 0.000 0.000 2.181
322 1 14.378 2.162 29.150 -0.002 -0.005 -0.001 2.179
324 2 13.569 2.362 38.362 -0.001 0.001 -0.006 1.714
328 3 12.549 3.936 19.387 0.000 0.000 0.000 -1.080
329 3 15.921 6.204 19.412 0.000 0.000 0.000 -1.083
330 3 12.853 3.275 28.303 0.002 -0.012 -0.014 -0.994
331 3 16.838 5.946 28.257 -0.006 0.016 -0.000 -1.154
332 3 11.693 5.310 39.343 -0.009 0.007 0.006 -1.121
333 3 16.685 5.900 37.340 0.010 -0.007 -0.005 -1.194
336 3 14.222 5.778 21.602 0.002 0.010 -0.003 -1.199
337 3 17.309 3.733 21.738 0.015 -0.004 -0.007 -1.123
338 3 14.037 8.203 30.485 0.009 0.002 -0.013 -0.797
339 3 17.105 3.404 31.090 -0.020 -0.001 0.020 -1.161
340 3 14.133 5.696 40.629 -0.002 -0.011 0.002 -1.210
341 3 16.916 4.129 40.645 -0.003 -0.002 -0.013 -1.199
344 3 18.257 5.985 25.298 -0.000 0.002 0.002 -1.220
345 3 14.747 4.724 34.398 -0.006 0.008 0.005 -1.097
346 3 17.992 5.910 35.168 0.008 -0.004 -0.003 -1.202
349 3 12.875 3.988 24.189 -0.004 -0.009 0.006 -1.175
350 3 16.392 6.043 23.577 -0.003 -0.002 0.003 -1.106
351 3 14.637 5.274 26.754 -0.012 0.012 0.004 -1.260
352 3 17.135 4.165 26.091 -0.001 -0.004 -0.005 -1.005
353 3 14.484 6.586 36.631 -0.005 -0.010 0.003 -0.956
354 3 16.853 3.808 35.998 0.015 -0.011 0.012 -1.278
355 3 12.108 4.030 42.586 -0.004 0.003 -0.006 -1.109
356 3 16.320 5.687 42.426 0.011 -0.002 -0.003 -1.179
361 3 14.332 5.845 31.064 0.004 0.004 0.018 -1.042
362 3 16.157 5.528 32.575 -0.002 -0.001 0.011 -1.171
363 3 15.037 3.722 19.639 0.000 0.000 0.000 -1.178
364 3 18.493 5.606 19.488 0.000 0.000 0.000 -1.124
365 3 15.108 4.245 29.471 0.014 -0.000 0.008 -1.221
366 3 18.379 5.465 30.153 0.001 -0.003 -0.016 -1.153
367 3 15.144 3.995 38.972 -0.001 0.005 0.004 -1.155
368 3 18.459 5.741 39.296 -0.003 0.007 -0.013 -1.052
371 1 12.896 3.977 26.225 0.006 0.001 -0.001 2.281
372 1 16.234 6.144 26.268 -0.000 0.000 0.004 2.298
373 1 12.728 3.808 35.110 -0.001 0.006 -0.006 2.190
374 1 16.067 5.992 35.475 -0.000 -0.002 -0.002 2.420
377 2 15.193 3.908 23.065 -0.001 0.003 0.002 1.557
378 1 18.413 6.016 23.279 0.004 0.001 -0.005 2.329
379 1 14.852 4.056 32.371 0.004 -0.000 0.001 2.224
380 1 18.271 5.738 32.339 -0.003 -0.003 0.000 2.133
381 1 15.076 4.076 41.738 0.002 0.004 -0.002 2.249
382 1 18.268 5.861 41.618 0.001 -0.004 0.006 2.335
385 1 13.797 5.702 19.676 0.000 0.000 0.000 2.195
386 1 17.074 4.184 19.822 0.000 0.000 0.000 2.119
387 1 14.020 5.878 28.893 0.001 -0.002 0.002 2.255
388 1 17.086 4.153 29.286 0.000 -0.002 0.003 2.397
389 1 13.769 5.761 38.556 -0.003 -0.003 -0.003 2.230
390 1 16.986 4.232 38.462 0.000 -0.002 -0.001 2.202
394 3 22.553 2.319 19.102 0.000 0.000 0.000 -1.003
396 3 22.193 2.293 28.737 0.014 0.008 0.005 -1.320
398 3 21.927 1.673 37.270 0.006 -0.002 0.004 -0.957
401 3 20.324 2.410 22.497 0.011 -0.009 0.002 -1.123
403 3 20.217 2.006 32.265 0.000 -0.010 0.012 -1.190
405 3 19.847 2.410 40.321 -0.002 0.004 -0.002 -1.182
410 3 24.388 1.576 25.227 -0.004 0.002 -0.006 -1.114
412 3 24.013 3.070 35.827 0.002 0.003 0.003 -0.980
416 3 22.569 2.367 23.675 -0.010 0.009 0.002 -1.057
417 3 20.239 2.326 26.837 -0.008 -0.007 -0.011 -1.234
419 3 20.159 2.508 36.095 -0.002 0.000 0.009 -1.031
422 3 22.423 1.767 41.973 0.004 0.001 0.009 -1.194
428 3 22.636 1.711 33.194 -0.000 -0.009 0.009 -1.056
429 3 21.127 0.328 20.740 0.000 0.000 0.000 -1.088
430 3 23.646 2.415 21.587 0.003 -0.015 -0.007 -0.982
432 3 24.644 2.062 29.814 -0.002 0.015 0.004 -1.221
438 1 22.200 2.219 25.920 0.002 0.003 -0.006 2.106
440 1 22.222 2.361 35.230 0.000 0.000 0.001 2.284
443 1 21.489 0.549 22.863 0.002 0.002 -0.000 2.193
444 1 24.866 1.956 23.274 -0.004 0.001 0.005 2.218
446 1 24.412 2.181 31.906 -0.006 0.009 -0.001 2.202
448 1 24.658 1.678 41.620 -0.003 0.001 -0.001 2.360
451 2 20.178 2.057 19.185 0.000 0.000 0.000 1.668
452 1 23.654 0.697 20.057 0.000 0.000 0.000 2.166
453 1 20.193 2.105 28.998 0.002 0.003 0.001 2.348
455 1 20.158 2.364 38.249 -0.001 0.001 0.004 2.329
459 3 22.396 6.231 19.569 0.000 0.000 0.000 -1.065
460 3 18.737 3.788 28.149 -0.005 0.008 0.014 -1.132
461 3 22.593 5.684 28.743 0.007 -0.000 0.008 -1.266
462 3 19.321 4.045 37.424 -0.002 -0.004 0.002 -1.157
463 3 21.791 6.660 37.198 -0.006 -0.011 -0.002 -1.090
466 3 19.846 5.023 21.899 -0.007 0.012 -0.011 -1.160
467 3 23.022 5.067 22.043 0.004 0.015 0.001 -0.998
468 3 20.259 5.859 31.771 0.005 0.006 -0.008 -1.185
469 3 23.225 4.047 31.245 0.003 0.004 -0.007 -1.281
470 3 20.917 5.751 40.618 -0.004 -0.019 0.001 -1.192
471 3 23.871 3.392 40.731 -0.008 -0.002 0.014 -1.101
474 3 21.399 4.104 25.302 0.002 0.005 -0.002 -1.292
475 3 24.451 6.041 25.502 -0.011 0.003 -0.005 -1.039
476 3 21.719 3.612 33.995 0.001 -0.005 0.004 -1.121
477 3 24.541 5.782 34.549 0.003 -0.002 0.001 -1.325
480 3 18.820 4.086 23.884 0.012 -0.001 -0.003 -1.192
481 3 22.304 5.818 24.099 0.001 -0.001 -0.005 -1.145
482 3 20.272 5.814 26.871 -0.005 -0.000 0.006 -1.366
483 3 23.658 3.988 27.006 -0.015 0.009 0.003 -1.224
484 3 20.351 5.594 35.456 -0.000 -0.009 0.001 -0.993
485 3 23.229 4.467 36.701 0.004 0.001 0.007 -1.060
486 3 19.290 4.328 42.131 -0.003 -0.006 0.013 -1.162
487 3 22.886 4.960 42.130 -0.010 -0.005 0.012 -1.055
492 3 18.989 3.876 33.354 -0.007 -0.010 0.007 -1.242
493 3 22.330 5.850 33.056 -0.001 0.011 0.000 -1.075
494 3 21.183 4.279 19.663 0.000 0.000 0.000 -0.998
495 3 24.817 5.508 20.070 0.000 0.000 0.000 -1.099
496 3 20.715 3.810 30.088 -0.005 -0.007 -0.002 -1.237
497 3 24.756 6.236 30.525 0.027 -0.011 -0.011 -1.166
498 3 21.865 3.990 38.967 -0.013 0.006 0.005 -1.363
499 3 23.990 5.654 39.364 0.003 0.000 0.009 -1.156
502 1 19.328 4.266 26.145 -0.006 0.000 -0.004 2.270
503 1 22.377 5.643 26.414 0.001 0.002 -0.002 2.220
504 1 18.708 3.911 35.385 0.002 -0.001 -0.002 2.371
505 1 22.338 5.796 35.365 -0.001 -0.000 0.001 2.243
508 1 21.383 4.140 23.145 -0.001 0.001 -0.003 2.186
509 1 24.502 6.092 23.368 0.009 0.005 0.001 2.210
510 1 21.065 3.876 32.112 -0.001 -0.003 -0.006 2.305
511 1 24.260 5.553 32.443 -0.001 -0.001 0.001 2.191
512 1 21.668 3.581 40.989 -0.000 -0.002 0.001 2.185
513 1 24.629 5.586 41.275 0.001 -0.000 -0.000 2.340
516 1 20.403 6.034 20.157 0.000 0.000 0.000 2.299
517 1 23.352 3.966 19.998 0.000 0.000 0.000 2.214
518 1 20.291 5.828 29.243 0.005 0.002 0.002 2.211
519 1 23.410 3.872 29.168 -0.004 0.001 -0.006 2.241
520 1 20.558 5.658 38.479 -0.001 -0.000 -0.003 2.188
521 1 23.716 3.657 38.392 0.005 -0.002 -0.001 2.303
524 3 25.592 0.122 19.242 0.000 0.000 0.000 -1.107
589 3 24.997 2.634 19.510 0.000 0.000 0.000 -1.037
2080 3 0.080 7.586 18.848 0.000 0.000 0.000 -1.103
2081 3 2.664 8.225 19.641 0.000 0.000 0.000 -0.962
2083 3 4.050 10.919 27.322 -0.001 0.013 0.005 -1.067
2085 3 2.808 9.530 37.518 -0.003 -0.001 -0.011 -1.326
2088 3 1.248 10.021 22.085 -0.005 0.005 -0.002 -1.097
2089 3 4.353 8.076 22.069 -0.006 0.005 -0.002 -0.985
2090 3 0.923 9.956 31.045 0.002 0.007 -0.010 -0.889
2091 3 3.969 7.306 31.290 -0.018 -0.005 -0.003 -1.117
2092 3 0.548 9.948 40.377 0.006 0.005 0.004 -1.036
2093 3 4.857 7.698 41.292 0.007 -0.007 -0.009 -1.029
2096 3 2.232 7.364 25.529 -0.000 0.005 0.003 -1.195
2097 3 5.522 9.489 25.185 0.005 -0.003 -0.001 -1.202
2098 3 2.356 7.431 34.843 -0.001 0.002 -0.005 -1.132
2099 3 4.938 9.766 34.920 0.007 -0.001 0.008 -1.047
2103 3 3.073 9.201 23.971 0.003 -0.002 0.003 -1.071
2104 3 0.928 9.502 26.895 -0.001 -0.008 0.005 -1.045
2105 3 4.732 7.534 26.142 -0.017 -0.008 -0.006 -1.049
2106 3 0.945 9.531 35.800 -0.001 0.006 0.004 -1.147
2107 3 4.678 7.900 36.486 -0.003 0.010 0.015 -1.113
2109 3 2.930 9.665 42.131 -0.024 0.002 0.011 -1.222
2115 3 2.222 9.198 32.227 -0.008 -0.006 -0.003 -1.018
2116 3 1.883 7.109 20.988 0.000 0.000 0.000 -1.080
2117 3 5.332 9.411 19.736 0.000 0.000 0.000 -1.090
2118 3 3.059 8.656 28.177 0.006 0.014 0.001 -1.031
2119 3 5.447 9.455 29.603 -0.001 -0.000 0.010 -1.200
2120 3 2.622 8.167 39.861 0.006 0.008 0.011 -1.085
2121 3 5.130 9.567 39.286 0.009 0.013 -0.012 -1.168
2125 1 3.499 9.356 26.025 -0.001 -0.001 0.000 2.234
2127 1 3.019 9.348 35.568 -0.002 -0.001 -0.002 2.279
2130 1 2.417 7.538 22.846 -0.001 0.000 -0.000 2.266
2131 1 5.652 9.615 23.225 -0.004 -0.002 0.001 2.213
2132 1 2.110 7.133 32.113 0.001 0.001 -0.000 2.240
2133 2 5.152 9.187 32.536 -0.004 -0.011 -0.001 1.660
2134 1 2.201 7.764 41.851 0.004 0.001 0.007 2.337
2135 1 5.135 9.634 41.591 0.001 0.004 0.001 2.350
2138 1 0.977 9.496 19.852 0.000 0.000 0.000 2.117
2139 1 4.366 7.432 20.081 0.000 0.000 0.000 2.292
2140 1 1.193 9.439 29.136 -0.002 0.003 -0.001 2.392
2141 1 4.415 7.391 29.276 0.003 -0.008 -0.005 2.200
2142 1 0.935 9.292 38.443 0.008 -0.002 0.001 2.063
2143 1 4.035 7.615 38.493 0.002 0.001 0.003 2.228
2146 3 0.022 11.240 19.029 0.000 0.000 0.000 -1.045
2147 3 3.170 13.236 19.491 0.000 0.000 0.000 -1.028
2149 3 2.350 14.041 28.692 0.010 0.002 -0.000 -1.107
2151 3 2.849 13.968 37.213 -0.001 -0.005 -0.005 -1.141
2154 3 1.298 13.066 21.934 0.006 -0.008 0.003 -1.188
2155 3 4.157 10.983 22.190 0.005 -0.008 -0.004 -1.132
2156 3 0.727 12.823 31.437 0.001 0.001 -0.011 -1.184
2157 3 4.006 11.765 31.405 0.007 0.016 0.005 -1.204
2159 3 4.140 11.233 41.022 0.007 0.002 0.008 -1.254
2162 3 2.294 11.118 25.302 -0.009 0.006 -0.003 -1.184
2163 3 5.845 13.284 25.209 -0.001 0.005 -0.003 -1.179
2164 3 3.115 11.013 34.482 -0.011 -0.001 -0.002 -1.174
2165 3 4.866 13.252 34.455 0.006 0.000 -0.000 -1.270
2169 3 3.389 13.226 23.393 0.009 0.009 0.022 -1.248
2172 3 4.195 11.866 36.751 -0.003 -0.002 0.003 -1.304
2174 3 2.162 13.003 42.252 0.008 -0.004 0.006 -1.085
2180 3 2.463 13.095 33.287 -0.006 -0.003 0.007 -1.143
2181 3 2.388 10.949 19.611 0.000 0.000 0.000 -1.057
2182 3 5.581 12.872 19.891 0.000 0.000 0.000 -1.139
2183 3 2.170 11.172 29.252 -0.003 -0.004 -0.003 -1.179
2184 3 4.860 13.192 29.110 -0.001 0.003 0.003 -1.073
2185 3 2.432 11.444 39.422 0.007 -0.008 -0.011 -1.219
2186 3 4.834 12.954 39.011 -0.002 -0.006 0.001 -1.131
2190 2 3.066 13.055 26.529 0.003 -0.000 0.002 1.737
2192 1 3.290 12.835 35.422 -0.003 -0.001 -0.003 2.416
2195 1 2.340 11.405 23.319 -0.004 0.004 -0.002 2.191
2196 1 5.373 13.235 23.326 -0.004 -0.001 0.000 2.224
2197 1 1.963 11.243 32.497 0.003 0.005 0.005 2.252
2198 1 5.276 13.086 32.499 0.001 -0.002 0.005 2.339
2199 1 2.023 11.235 41.382 0.001 0.002 0.002 2.396
2200 1 5.234 13.001 41.367 -0.002 0.002 -0.002 2.197
2203 1 1.045 12.961 19.923 0.000 0.000 0.000 2.141
2204 1 4.396 11.329 20.041 0.000 0.000 0.000 2.113
2205 1 0.833 12.932 29.308 -0.002 -0.004 -0.000 2.209
2206 1 4.288 11.198 29.471 0.004 0.000 -0.004 2.093
2207 1 1.276 13.002 38.299 -0.008 0.005 -0.001 2.137
2208 1 4.143 11.087 38.405 -0.001 0.002 -0.003 2.379
2211 3 6.518 7.309 19.536 0.000 0.000 0.000 -1.096
2212 3 9.572 9.336 18.992 0.000 0.000 0.000 -1.100
2213 3 6.337 7.205 28.403 -0.001 0.002 -0.007 -1.216
2214 3 10.467 9.827 28.037 0.015 0.005 0.012 -1.206
2215 3 6.283 7.599 38.388 0.004 0.009 -0.000 -1.020
2216 3 9.308 9.193 38.500 0.006 -0.011 -0.013 -1.118
2219 3 7.581 9.456 22.188 0.003 0.006 0.001 -1.140
2220 3 10.842 7.655 22.660 0.010 0.004 -0.004 -1.000
2221 3 7.413 9.144 31.479 -0.007 0.000 -0.011 -1.026
2222 3 10.512 7.510 32.542 -0.015 -0.007 0.001 -1.112
2223 3 7.239 8.974 40.657 0.002 0.006 0.002 -1.157
2224 3 10.656 7.604 40.567 0.019 -0.009 0.004 -1.147
2227 3 8.305 8.418 24.844 -0.005 0.007 -0.005 -1.035
2228 3 12.116 9.569 25.714 0.002 0.001 0.006 -1.104
2229 3 8.243 6.531 33.963 -0.002 0.012 -0.014 -1.144
2230 3 11.363 10.268 34.770 0.005 -0.001 0.007 -1.052
2233 3 6.101 7.577 23.308 0.009 -0.004 0.001 -1.008
2234 3 10.265 9.743 24.094 0.001 0.006 -0.011 -1.052
2235 3 8.005 9.168 27.444 -0.002 0.005 -0.003 -1.146
2236 3 9.973 7.489 26.203 0.009 0.005 -0.005 -1.021
2237 3 7.611 8.744 36.479 -0.014 -0.002 -0.006 -1.082
2238 3 10.326 7.890 36.116 -0.010 0.001 -0.003 -1.151
2239 3 7.405 6.976 42.989 0.009 0.004 0.004 -1.011
2240 3 9.325 9.302 42.619 0.003 0.015 0.018 -1.162
2245 3 6.088 7.254 33.468 0.000 -0.005 -0.006 -1.021
2246 3 9.147 9.544 33.027 -0.000 -0.017 0.003 -1.103
2247 3 8.949 7.610 20.784 0.000 0.000 0.000 -1.253
2248 3 12.070 8.837 20.735 0.000 0.000 0.000 -1.039
2249 3 8.670 7.496 30.143 0.003 -0.002 -0.015 -1.133
2250 3 8.677 6.724 39.480 0.009 -0.007 0.003 -1.050
2251 3 12.017 9.636 38.355 -0.002 0.003 -0.017 -1.036
2254 1 6.840 7.617 26.299 -0.002 0.004 0.005 2.145
2255 1 9.896 9.549 26.045 -0.001 0.005 0.000 2.240
2256 1 6.392 7.456 35.589 0.000 -0.001 0.003 2.284
2257 1 9.461 9.566 35.326 -0.002 0.000 0.002 2.177
2260 1 8.532 7.620 22.880 -0.002 0.001 0.005 2.194
2261 1 11.860 9.401 22.711 -0.003 0.000 0.004 2.302
2262 1 8.562 7.482 32.218 -0.003 0.003 -0.007 2.306
2263 2 11.586 9.678 32.373 0.007 -0.009 -0.001 1.672
2264 1 8.471 7.377 41.374 0.002 0.002 0.003 2.303
2265 1 11.316 9.242 41.699 0.002 0.005 0.002 2.115
2268 1 7.585 9.207 19.958 0.000 0.000 0.000 2.103
2269 1 10.717 7.534 19.765 0.000 0.000 0.000 2.161
2270 1 7.565 9.485 29.378 0.003 0.001 0.005 2.178
2271 2 10.639 7.473 28.580 -0.002 0.004 -0.003 1.687
2272 1 7.273 9.457 38.645 0.003 -0.004 0.001 2.399
2273 1 10.616 7.605 38.355 0.008 0.002 -0.002 2.205
2276 3 7.643 11.249 20.014 0.000 0.000 0.000 -0.862
2277 3 11.348 13.113 19.059 0.000 0.000 0.000 -1.010
2278 3 7.104 11.392 28.824 -0.003 -0.004 -0.003 -1.116
2279 3 9.542 13.248 29.114 -0.010 0.017 0.002 -1.128
2280 3 6.378 11.028 37.526 -0.001 0.004 -0.008 -1.145
2281 3 8.918 13.870 37.233 -0.005 0.011 -0.014 -1.019
2284 3 8.105 13.655 21.800 -0.000 0.002 0.005 -1.208
2285 3 10.686 10.503 21.366 0.000 0.000 0.000 -1.019
2286 3 6.317 11.490 32.812 0.007 0.006 -0.002 -1.125
2287 3 8.840 11.101 30.390 0.011 0.004 -0.007 -1.126
2288 3 6.967 13.386 40.370 -0.006 -0.006 -0.006 -1.172
2289 3 10.328 10.684 40.614 -0.003 -0.004 -0.008 -1.147
2292 3 8.727 11.429 26.222 0.001 0.005 -0.003 -1.076
2293 3 12.974 13.132 25.301 -0.019 -0.002 0.006 -0.918
2294 3 7.984 10.604 34.621 -0.001 -0.011 -0.011 -1.194
2295 3 11.475 13.074 35.237 -0.003 0.010 -0.015 -1.116
2298 3 6.352 11.611 23.103 0.002 0.002 -0.002 -1.152
2299 3 9.927 13.355 24.208 -0.008 0.004 0.008 -1.137
2300 3 7.697 13.789 27.435 0.012 -0.021 -0.003 -1.127
2301 3 11.167 12.531 27.119 0.006 0.005 -0.011 -1.213
2302 3 6.798 13.295 36.117 -0.002 -0.008 -0.003 -1.158
2303 3 9.596 11.360 36.512 -0.009 0.001 0.008 -1.210
2304 3 6.691 10.982 42.410 0.015 -0.001 0.006 -1.234
2305 3 9.078 12.969 41.869 0.006 -0.004 -0.007 -1.091
2310 3 10.696 11.742 32.187 0.012 -0.003 -0.002 -1.049
2311 3 8.887 11.933 18.888 0.000 0.000 0.000 -0.842
2312 3 11.404 13.368 21.411 0.000 0.000 0.000 -1.095
2313 3 7.134 13.307 31.665 -0.002 0.009 -0.016 -1.093
2314 3 11.745 13.812 30.269 -0.017 -0.001 0.005 -1.232
2315 3 7.856 11.278 39.406 -0.000 0.015 -0.011 -1.171
2316 3 10.410 13.074 39.346 0.006 0.008 0.005 -1.065
2318 2 6.643 11.225 26.409 -0.000 0.005 0.003 1.695
2319 1 9.491 13.496 26.422 -0.002 -0.004 0.001 2.295
2320 1 6.207 11.435 35.376 0.002 -0.001 0.004 2.140
2321 1 9.478 13.117 35.339 -0.001 0.001 -0.003 2.165
2324 2 8.894 11.540 22.892 -0.005 -0.000 0.001 1.665
2325 1 11.836 13.257 23.312 0.000 -0.001 -0.005 2.263
2326 1 8.469 11.336 32.476 0.002 -0.001 0.001 2.257
2327 1 11.915 13.428 32.220 0.002 0.002 0.002 2.339
2328 1 8.438 11.150 41.358 0.002 -0.002 -0.003 2.293
2329 2 11.549 13.113 41.545 0.002 -0.001 -0.003 1.690
2332 1 7.668 13.405 19.823 0.000 0.000 0.000 2.189
2333 1 10.750 11.063 19.356 0.000 0.000 0.000 2.106
2334 1 7.395 13.315 29.507 -0.002 -0.002 -0.005 2.312
2335 1 10.551 11.545 29.039 0.000 -0.003 -0.004 2.140
2336 1 7.032 13.073 38.261 -0.004 0.000 0.002 2.245
2337 1 10.626 11.197 38.314 0.000 0.005 0.001 2.151
2340 3 12.823 7.387 18.914 0.000 0.000 0.000 -1.122
2341 3 16.304 9.456 19.283 0.000 0.000 0.000 -1.105
2342 3 12.870 7.099 27.639 -0.002 0.006 -0.009 -1.051
2343 3 16.479 9.724 28.513 0.012 -0.002 0.004 -1.189
2344 3 11.396 5.274 35.241 0.007 0.010 0.012 -1.167
2345 3 15.605 9.825 37.398 -0.008 0.002 -0.005 -1.013
2348 3 13.883 8.895 22.943 -0.001 0.008 -0.004 -1.054
2349 3 17.469 7.006 21.704 0.002 -0.013 0.012 -0.978
2350 3 13.602 10.315 31.270 -0.010 -0.001 -0.008 -1.046
2351 3 16.989 7.646 31.376 -0.005 -0.002 -0.012 -1.203
2352 3 14.006 9.199 40.926 -0.000 0.001 -0.011 -1.184
2353 3 17.019 7.462 40.796 0.013 -0.014 0.008 -1.103
2356 3 14.893 7.679 25.618 0.010 -0.010 0.002 -1.193
2357 3 17.368 9.464 25.015 0.008 -0.020 0.016 -0.996
2358 3 15.530 7.595 34.261 0.000 -0.011 -0.002 -1.204
2359 3 17.832 9.902 34.263 0.005 -0.007 -0.007 -1.076
2362 3 13.201 7.003 23.855 -0.004 0.015 0.004 -1.232
2363 3 16.599 8.529 22.538 -0.016 -0.012 0.004 -0.884
2364 3 14.123 9.893 27.247 -0.003 0.002 0.003 -1.193
2365 3 17.263 8.065 26.768 -0.008 -0.020 -0.003 -1.127
2366 3 13.782 9.631 35.740 -0.001 0.014 -0.001 -1.030
2367 3 17.209 7.998 36.252 -0.015 -0.003 0.003 -1.144
2368 3 12.546 7.304 42.125 -0.005 -0.005 0.009 -1.085
2369 3 16.325 9.617 42.718 0.006 -0.009 -0.006 -1.081
2374 3 13.346 7.110 33.009 0.006 0.006 -0.002 -1.139
2375 3 15.566 9.501 32.517 0.008 -0.000 0.001 -1.199
2376 3 14.852 7.894 20.624 0.000 0.000 0.000 -1.029
2377 3 18.307 9.701 20.947 0.000 0.000 0.000 -1.061
2378 3 15.288 7.536 29.230 0.002 0.003 0.012 -0.867
2379 3 18.319 9.852 30.159 -0.009 -0.006 -0.010 -1.046
2380 3 15.256 7.632 39.001 0.010 -0.001 -0.015 -1.188
2381 3 18.629 8.860 39.520 -0.003 -0.013 0.009 -1.045
2384 1 13.046 7.622 25.643 0.007 0.002 -0.001 2.326
2385 1 16.098 9.691 26.416 0.005 -0.001 0.005 2.293
2386 2 12.572 7.511 35.413 0.000 -0.002 -0.001 1.695
2387 1 15.939 9.440 35.253 -0.002 0.001 0.001 2.276
2390 1 14.960 7.235 22.643 0.000 -0.002 0.003 2.399
2391 1 18.355 9.570 23.216 0.001 0.002 0.001 2.173
2392 1 15.045 7.400 32.243 0.003 -0.003 0.001 2.464
2393 1 18.025 9.304 32.319 0.000 -0.003 0.001 2.360
2394 1 15.023 7.525 41.348 -0.003 0.001 0.000 2.197
2395 1 18.226 9.375 41.674 0.001 0.000 0.004 2.354
2398 1 14.056 9.230 19.403 0.000 0.000 0.000 2.051
2399 1 17.262 7.698 19.899 0.000 0.000 0.000 2.230
2400 1 14.220 9.943 29.323 0.006 -0.000 -0.004 2.154
2401 1 17.404 7.796 29.236 -0.000 0.002 -0.001 2.221
2402 1 14.074 9.291 38.666 0.001 -0.002 0.005 2.305
2403 1 17.288 7.608 38.322 -0.005 0.001 -0.003 2.206
2406 3 12.752 10.831 18.766 0.000 0.000 0.000 -1.091
2407 3 16.058 13.344 19.325 0.000 0.000 0.000 -1.028
2408 3 12.587 11.421 29.029 -0.001 -0.009 -0.004 -1.242
2409 3 16.839 13.629 27.972 -0.002 0.002 0.001 -0.965
2410 3 12.549 11.870 37.684 -0.002 -0.003 0.009 -1.016
2411 3 15.972 12.873 37.696 -0.003 0.014 0.001 -1.305
2414 3 13.988 13.247 22.817 0.004 -0.004 0.000 -0.893
2415 3 16.869 12.185 21.885 -0.002 -0.002 0.002 -1.015
2416 3 13.959 13.311 31.320 0.005 0.001 -0.017 -1.076
2417 3 17.054 11.335 31.917 0.007 0.003 0.013 -1.006
2418 3 13.858 12.828 40.978 0.002 0.000 -0.003 -1.163
2419 3 16.936 10.644 40.376 0.011 -0.004 0.002 -1.058
2422 3 15.112 11.304 25.520 -0.005 -0.004 0.007 -1.171
2423 3 19.127 12.984 25.020 -0.007 0.010 -0.006 -0.966
2424 3 15.061 11.340 34.649 -0.010 0.007 -0.002 -1.291
2425 3 17.906 13.288 34.625 -0.009 -0.006 0.010 -1.054
2428 3 12.451 11.300 23.419 -0.007 0.008 -0.014 -1.032
2429 3 16.324 13.172 24.197 -0.000 -0.002 0.000 -1.095
2430 3 14.072 13.568 27.324 0.011 -0.004 0.009 -1.217
2431 3 17.545 11.758 26.861 0.008 -0.006 0.005 -1.099
2432 3 13.691 13.434 36.402 0.017 0.008 -0.004 -1.120
2433 3 17.224 11.179 36.232 0.004 0.012 -0.003 -1.108
2434 3 12.654 10.945 42.319 -0.015 -0.009 0.005 -1.138
2435 3 16.376 12.574 42.478 -0.006 -0.001 0.001 -1.062
2440 3 13.205 12.027 33.372 0.005 -0.006 -0.005 -1.122
2441 3 15.945 13.048 32.776 0.015 0.006 0.001 -1.123
2442 3 14.975 11.137 19.932 0.000 0.000 0.000 -0.953
2443 3 18.140 13.485 20.932 0.000 0.000 0.000 -1.109
2444 3 15.278 11.878 29.199 0.006 0.011 0.008 -1.252
2445 3 18.090 13.213 30.123 0.013 -0.013 -0.002 -1.198
2446 3 14.678 11.205 38.867 -0.008 -0.006 -0.005 -1.113
2447 3 18.116 13.059 39.344 -0.005 0.007 -0.007 -1.200
2450 1 12.938 11.482 26.598 0.004 0.006 0.003 2.100
2451 1 15.853 13.168 26.180 -0.001 0.007 -0.005 2.236
2452 1 13.051 11.489 35.460 -0.001 -0.002 0.002 2.237
2453 1 15.912 13.149 35.599 -0.002 0.001 0.005 2.161
2456 2 14.996 11.205 23.205 0.002 0.000 -0.004 1.723
2457 1 18.207 13.292 23.084 0.006 0.001 -0.001 2.317
2458 1 14.965 11.273 32.543 0.001 0.001 -0.001 2.393
2459 1 18.283 13.046 32.477 0.005 0.002 -0.000 2.251
2460 1 14.968 11.149 41.707 -0.003 -0.002 0.002 2.147
2461 1 18.195 13.471 41.727 -0.000 0.000 0.001 2.178
2464 2 13.797 12.979 18.821 0.000 0.000 0.000 1.659
2465 1 17.035 11.422 20.031 0.000 0.000 0.000 2.171
2466 1 13.861 13.356 29.304 0.004 -0.003 -0.002 2.212
2467 1 17.283 11.641 29.095 -0.002 0.005 -0.005 2.280
2468 1 14.055 13.066 38.598 -0.000 0.005 0.001 2.244
2469 1 17.165 11.303 38.389 -0.001 -0.001 -0.003 2.206
2472 3 19.397 7.899 19.465 0.000 0.000 0.000 -1.056
2473 3 22.611 9.435 19.762 0.000 0.000 0.000 -1.015
2474 3 19.300 7.645 28.405 -0.010 -0.002 -0.006 -1.199
2475 3 20.505 9.888 27.246 0.006 -0.000 -0.005 -1.150
2476 3 19.566 7.427 37.861 -0.005 0.007 0.004 -1.051
2477 3 22.327 9.592 37.489 -0.005 0.018 0.000 -1.113
2480 3 21.103 10.011 22.122 0.009 -0.008 -0.002 -1.195
2481 3 23.598 7.752 22.114 0.004 0.006 0.005 -1.289
2482 3 19.934 9.227 31.715 -0.006 0.004 0.011 -1.186
2483 3 22.997 7.587 31.402 0.025 0.003 0.005 -1.236
2484 3 20.245 9.578 41.248 0.006 0.002 -0.012 -0.988
2485 3 23.528 7.600 41.043 -0.007 -0.013 -0.007 -1.003
2488 3 21.226 8.014 25.336 -0.015 0.007 -0.005 -1.161
2489 3 24.459 9.472 26.350 0.003 -0.007 0.010 -1.002
2490 3 21.193 7.797 34.444 0.002 0.012 0.002 -1.170
2491 3 24.355 9.488 34.466 0.007 -0.006 0.001 -1.144
2494 3 19.501 7.722 23.381 -0.004 -0.008 0.000 -1.159