ITEM: TIMESTEP
0
ITEM: NUMBER OF ATOMS
37374
ITEM: BOX BOUNDS pp pp pp
0.000000 102.779942
0.000000 118.660062
0.000000 130.735200
ITEM: ATOMS id type x y z vx vy vz q
2 3 3.194 2.308 19.117 0.000 0.000 -0.000 -1.059
4 3 3.069 2.175 29.131 -0.011 -0.001 -0.011 -1.173
5 3 0.034 0.012 37.893 -0.004 -0.007 0.008 -1.210
6 3 2.547 2.605 37.376 0.008 0.011 0.008 -1.050
9 3 1.341 1.802 21.838 0.006 0.000 -0.002 -1.108
10 3 3.949 0.502 21.810 0.000 0.003 -0.003 -1.205
11 3 0.915 2.440 31.500 0.006 -0.010 0.007 -1.154
12 3 4.284 0.099 31.644 -0.002 -0.004 0.006 -1.217
13 3 0.525 1.703 40.614 -0.004 -0.007 0.004 -1.076
14 3 4.257 0.106 41.155 0.001 0.001 -0.006 -1.212
17 3 0.776 0.577 24.556 -0.007 0.007 -0.003 -1.043
18 3 5.509 1.965 25.925 0.015 -0.003 -0.004 -1.106
19 3 2.261 0.164 35.567 -0.002 -0.015 0.001 -1.037
20 3 4.994 2.538 34.567 0.003 0.004 -0.001 -1.120
24 3 3.078 2.128 23.812 -0.011 -0.003 0.007 -1.106
25 3 0.588 2.173 27.043 -0.004 0.000 0.006 -1.080
27 3 0.359 2.013 36.046 0.006 -0.014 -0.001 -1.074
28 3 4.427 1.034 36.712 -0.007 -0.004 -0.014 -1.083
30 3 2.643 1.792 42.643 0.007 0.008 0.005 -1.096
35 3 0.291 0.543 33.386 -0.002 0.001 -0.002 -1.174
36 3 2.868 1.976 33.257 0.004 -0.010 -0.005 -1.262
37 3 1.881 0.228 19.742 0.000 0.000 -0.000 -1.174
38 3 5.513 1.819 19.848 0.000 0.000 -0.000 -1.044
39 3 2.029 0.203 30.321 0.001 -0.002 0.003 -1.196
40 3 5.533 2.014 30.197 0.001 -0.008 -0.017 -1.185
41 3 2.405 0.787 39.412 -0.014 -0.010 0.004 -1.040
42 3 4.631 2.151 39.617 0.002 0.001 -0.005 -1.065
46 2 3.056 2.114 26.218 0.002 -0.001 0.003 1.664
48 1 3.109 2.040 35.501 0.001 -0.000 -0.001 2.270
51 1 2.092 0.290 22.981 -0.001 -0.000 0.002 2.197
52 1 5.197 1.924 22.861 0.001 0.002 -0.002 2.236
53 1 2.148 0.213 32.381 -0.003 0.003 -0.005 2.285
54 1 5.194 2.014 32.517 0.001 -0.002 -0.004 2.185
55 1 2.074 0.212 41.457 0.002 0.004 0.007 2.320
56 1 5.385 1.818 41.564 -0.003 0.001 0.000 2.232
59 1 1.108 2.215 19.775 0.000 0.000 -0.000 2.212
60 1 4.018 0.309 19.738 0.000 0.000 -0.000 2.261
61 1 1.014 2.012 29.287 -0.002 0.003 -0.000 2.165
62 1 4.280 0.234 29.409 0.002 0.003 0.001 2.167
63 1 0.726 1.954 38.396 -0.004 0.003 0.001 2.278
64 1 4.215 0.100 38.597 0.000 0.001 0.000 2.284
67 3 0.086 4.021 19.084 0.000 0.000 -0.000 -1.089
68 3 3.421 5.669 19.058 0.000 0.000 -0.000 -1.077
69 3 0.082 3.934 29.234 -0.001 -0.003 0.009 -1.117
70 3 2.952 6.245 28.400 -0.010 -0.005 -0.009 -1.178
71 3 0.036 3.870 38.119 0.004 0.001 -0.013 -1.068
72 3 3.045 6.155 37.455 -0.004 0.015 -0.005 -1.171
75 3 0.866 5.432 22.632 -0.009 0.003 0.001 -1.069
76 3 4.198 3.528 21.841 -0.004 -0.000 -0.005 -1.189
77 3 0.758 6.399 31.412 -0.006 0.004 0.002 -1.115
78 3 4.222 3.872 31.936 -0.011 0.006 0.009 -1.238
79 3 0.525 5.294 40.281 0.011 -0.003 0.005 -1.016
80 3 4.722 3.855 41.639 -0.020 0.001 0.003 -1.043
83 3 1.956 4.392 26.066 -0.008 0.008 0.007 -1.078
84 3 4.978 4.873 25.152 -0.001 -0.000 0.010 -1.082
85 3 2.060 4.067 34.954 -0.015 -0.002 -0.007 -1.203
86 3 5.153 6.255 34.624 0.001 0.007 0.001 -1.097
89 3 0.573 3.726 24.003 -0.012 -0.002 0.007 -1.007
90 3 3.356 5.606 23.509 -0.001 -0.007 0.015 -1.194
91 3 0.212 5.953 27.223 -0.015 0.003 0.015 -1.050
92 3 4.434 4.358 27.562 -0.001 -0.010 -0.008 -1.097
93 3 0.334 5.680 36.427 0.011 0.002 -0.003 -1.186
94 3 4.689 4.262 36.339 0.012 -0.002 0.006 -1.136
96 3 3.872 6.741 41.573 0.002 0.001 0.014 -0.946
101 3 0.303 4.271 33.178 -0.000 0.012 0.008 -1.155
102 3 2.905 5.690 33.333 -0.000 -0.006 0.002 -1.181
103 3 1.960 4.014 20.727 0.000 0.000 -0.000 -1.076
104 3 5.058 5.763 20.991 0.000 0.000 -0.000 -1.160
105 3 2.410 4.649 30.352 -0.000 -0.004 -0.006 -1.012
106 3 5.339 5.573 30.325 -0.002 -0.009 -0.005 -1.258
107 3 2.604 4.449 39.148 -0.012 0.007 -0.003 -0.982
108 3 5.130 5.582 39.257 -0.006 0.000 0.005 -1.205
112 1 3.420 5.773 26.296 0.002 0.003 0.004 2.308
114 1 3.262 5.676 35.412 -0.002 0.002 0.001 2.276
117 1 2.296 4.006 22.775 -0.001 0.001 -0.003 2.304
118 1 5.481 5.530 23.041 0.002 -0.001 -0.001 2.239
119 1 2.127 3.807 32.440 0.002 -0.004 -0.005 2.309
120 1 5.097 5.795 32.416 0.002 -0.003 -0.000 2.270
121 2 2.270 3.952 41.525 -0.000 0.000 -0.003 1.707
122 1 5.578 5.707 41.353 0.003 0.002 0.002 2.291
125 1 1.243 5.880 19.517 0.000 0.000 -0.000 2.121
126 1 4.463 3.941 19.823 0.000 0.000 -0.000 2.174
127 1 0.980 5.887 29.273 -0.007 0.002 -0.001 2.185
128 1 4.295 3.844 29.583 -0.001 -0.005 -0.005 2.170
129 1 1.020 5.750 38.437 -0.003 -0.002 -0.004 2.373
130 1 4.350 3.840 38.340 0.006 -0.006 -0.000 2.278
134 3 9.828 2.071 19.444 0.000 0.000 -0.000 -1.062
135 3 6.123 0.265 28.121 -0.003 -0.004 0.013 -1.099
136 3 9.535 1.479 29.194 0.001 -0.001 0.001 -1.005
137 3 6.292 0.399 38.325 -0.000 0.003 -0.005 -1.202
138 3 9.314 1.819 37.464 -0.002 0.004 0.006 -0.924
141 3 7.011 1.260 22.054 0.001 -0.012 0.008 -1.149
142 3 10.058 0.479 21.831 -0.001 -0.008 0.011 -1.156
143 3 7.153 2.165 32.692 0.009 -0.007 -0.001 -1.064
144 3 11.306 0.504 31.109 -0.002 -0.008 -0.003 -1.087
145 3 7.301 2.350 40.833 -0.005 0.001 0.001 -1.123
149 3 8.246 0.449 25.018 -0.001 -0.002 0.006 -1.240
150 3 11.845 2.047 25.374 0.009 0.005 0.006 -1.098
151 3 8.513 0.167 34.814 0.004 -0.001 -0.001 -1.106
152 3 11.655 2.170 34.506 -0.007 -0.005 -0.004 -1.184
155 3 5.631 0.153 23.981 0.007 -0.013 0.000 -1.151
156 3 9.522 1.939 23.797 0.007 -0.004 0.001 -1.220
157 3 7.905 2.017 27.114 -0.001 -0.004 0.004 -1.110
158 3 10.204 0.207 26.762 0.019 -0.003 -0.004 -1.094
159 3 7.067 2.072 36.339 0.009 0.002 0.001 -1.141
161 3 6.683 0.205 42.381 -0.002 0.002 -0.000 -1.153
162 3 9.588 2.085 41.832 -0.009 0.005 -0.007 -1.007
167 3 5.823 0.088 33.860 -0.006 -0.008 0.004 -1.139
168 3 9.840 2.622 33.051 -0.005 -0.005 -0.020 -1.077
169 3 8.337 0.112 19.404 0.000 0.000 -0.000 -1.128
170 3 11.991 2.067 20.912 0.000 0.000 -0.000 -1.068
171 3 7.325 0.003 30.027 0.001 0.000 0.004 -1.030
172 3 8.634 0.378 39.542 0.014 -0.002 -0.010 -1.208
173 3 10.730 2.034 38.578 -0.004 -0.006 -0.001 -0.889
176 1 6.452 0.140 25.928 -0.000 0.006 -0.001 2.240
177 1 9.603 1.965 25.878 0.005 -0.001 0.000 2.338
178 1 6.399 0.296 35.836 0.001 0.001 -0.000 2.261
179 1 9.790 1.904 35.352 -0.001 -0.002 0.001 2.180
182 1 8.416 0.102 23.085 -0.001 0.002 -0.004 2.273
183 1 11.569 1.910 23.047 -0.002 0.001 0.003 2.179
185 1 11.840 2.050 32.455 0.000 0.001 -0.001 2.323
186 1 8.691 0.093 41.702 0.004 0.000 -0.006 2.286
187 2 12.030 2.133 41.956 0.002 -0.007 -0.002 1.682
190 1 7.618 2.008 20.016 0.000 0.000 -0.000 2.159
192 1 7.364 1.858 29.081 0.002 0.004 -0.001 2.319
194 1 7.673 2.074 38.614 0.001 -0.001 0.000 2.326
198 3 6.608 4.036 19.356 0.000 0.000 -0.000 -1.075
199 3 9.667 5.592 19.337 0.000 0.000 -0.000 -1.145
200 3 6.727 3.813 28.450 -0.004 0.007 0.003 -1.223
201 3 9.056 5.343 28.135 0.003 0.011 -0.019 -1.113
202 3 6.483 3.801 38.430 -0.003 -0.002 -0.009 -1.083
203 3 9.405 5.526 37.572 -0.001 -0.004 -0.001 -1.194
206 3 7.501 5.893 22.220 0.006 0.005 0.003 -1.271
207 3 10.500 3.884 22.179 0.000 -0.001 -0.002 -1.207
208 3 8.392 5.429 31.077 -0.003 -0.008 -0.002 -1.088
209 3 11.308 3.868 31.563 0.007 0.005 -0.003 -1.034
210 3 7.543 5.877 40.739 0.001 -0.003 -0.014 -1.278
211 3 10.561 4.584 40.580 -0.002 0.007 -0.008 -1.048
214 3 8.257 3.591 25.190 0.005 0.014 0.009 -1.137
215 3 11.649 5.730 25.381 0.009 -0.004 0.001 -1.131
216 3 8.636 3.641 35.339 0.007 0.012 -0.004 -1.095
217 3 13.214 3.950 33.080 -0.002 0.003 0.004 -1.200
220 3 6.483 3.466 23.171 -0.008 0.001 0.003 -1.178
221 3 9.469 5.610 23.850 -0.009 0.006 0.003 -1.187
222 3 7.301 5.761 25.905 -0.008 0.001 -0.009 -1.124
223 3 10.545 3.755 26.508 0.002 -0.000 0.013 -1.202
224 3 6.889 5.516 36.279 0.003 -0.003 -0.007 -1.114
225 3 11.160 4.120 36.348 0.009 -0.001 0.003 -1.081
226 3 6.892 4.465 42.774 0.003 0.004 0.002 -1.048
227 3 9.776 6.153 42.600 0.009 0.008 0.004 -1.168
231 3 6.557 4.494 33.207 -0.001 -0.007 0.011 -1.159
232 3 8.747 5.591 33.580 -0.002 0.001 -0.019 -1.033
233 3 8.427 3.647 20.952 0.000 0.000 -0.000 -1.232
234 3 11.762 5.978 20.872 0.000 0.000 -0.000 -1.087
235 3 8.358 3.035 30.618 0.010 0.012 -0.012 -0.997
236 3 12.243 5.972 30.194 0.004 -0.007 0.015 -1.042
237 3 8.764 3.858 39.282 0.001 0.000 -0.002 -1.057
238 3 12.019 6.205 38.515 -0.003 -0.001 -0.006 -1.161
241 1 6.380 3.793 26.334 -0.007 -0.000 -0.006 2.237
242 1 9.513 5.520 26.028 -0.002 -0.001 -0.001 2.238
243 1 6.532 3.832 35.300 -0.002 0.001 0.004 2.339
244 1 9.722 5.735 35.514 -0.003 0.007 -0.001 2.300
247 1 8.510 3.828 23.096 0.002 -0.000 -0.003 2.272
248 1 11.638 5.562 22.992 0.005 0.005 0.003 2.194
249 1 8.355 3.872 32.463 0.003 0.004 0.004 2.361
250 1 12.055 5.695 32.194 0.008 0.004 -0.002 2.314
251 1 8.618 3.858 41.622 0.006 -0.002 0.001 2.273
252 1 11.777 5.892 41.810 -0.001 0.004 0.003 2.302
255 1 7.677 5.633 20.123 0.000 0.000 -0.000 2.156
256 1 10.605 3.818 20.133 0.000 0.000 -0.000 2.229
257 1 7.400 5.647 29.328 0.008 0.004 -0.004 2.217
258 2 10.380 3.691 29.299 -0.003 0.002 -0.003 1.676
259 1 7.481 5.723 38.504 -0.001 0.004 0.007 2.272
260 1 10.700 4.140 38.451 0.004 0.001 0.002 2.308
263 3 12.537 0.171 19.265 0.000 0.000 -0.000 -1.017
264 3 17.790 2.402 19.135 0.000 0.000 -0.000 -1.137
265 3 12.485 0.933 28.009 -0.007 0.005 0.007 -1.119
266 3 16.204 1.954 28.536 0.013 0.001 -0.013 -1.362
267 3 12.463 0.228 37.519 0.006 0.004 -0.008 -1.083
270 3 14.498 1.694 21.909 0.006 0.005 -0.001 -1.137
272 3 13.762 2.386 31.000 0.018 0.003 -0.012 -1.086
273 3 16.954 0.511 31.094 -0.001 -0.002 -0.002 -1.101
274 3 14.474 2.100 41.314 0.013 0.022 -0.006 -1.048
275 3 17.549 0.170 40.669 -0.009 -0.006 0.007 -1.174
278 3 14.765 0.516 24.924 -0.004 0.007 0.003 -1.143
279 3 18.455 2.013 25.962 0.007 0.006 -0.004 -1.099
280 3 13.515 1.012 32.922 -0.002 0.004 0.013 -0.912
281 3 18.157 2.450 34.474 -0.001 -0.005 -0.013 -1.080
283 3 18.782 2.150 43.521 -0.006 -0.010 0.000 -1.147
284 3 12.502 0.179 23.821 -0.023 -0.014 0.002 -1.173
285 3 16.633 2.224 24.082 0.007 -0.006 0.003 -1.112
286 3 14.261 2.383 26.611 0.004 0.002 -0.004 -1.123
287 3 16.827 0.009 26.805 0.002 0.010 0.008 -1.219
288 3 13.738 2.077 35.830 -0.001 -0.012 -0.006 -1.135
289 3 15.263 0.063 35.193 -0.005 -0.001 -0.003 -1.031
291 3 16.503 1.359 42.725 0.011 -0.013 -0.010 -1.162
297 3 15.948 1.745 32.958 0.010 -0.010 0.009 -1.141
298 3 15.041 0.456 19.380 0.000 0.000 -0.000 -1.189
299 3 17.771 1.182 21.423 0.000 0.000 -0.000 -0.952
300 3 14.365 0.138 29.903 0.003 0.002 -0.009 -1.049
301 3 18.676 2.497 29.909 0.000 0.009 0.003 -1.108
302 3 15.561 0.437 39.458 -0.019 0.003 0.002 -1.130
303 3 18.094 2.350 39.343 0.003 -0.010 0.009 -1.102
306 1 12.968 0.226 25.998 -0.003 0.002 -0.004 2.236
307 1 16.236 1.840 26.146 0.004 -0.002 -0.006 2.238
308 1 12.932 0.162 35.449 0.001 -0.001 0.002 2.293
309 1 16.110 2.057 35.071 0.002 0.000 0.001 2.253
312 1 15.069 0.053 22.911 -0.003 -0.002 0.004 2.205
313 1 18.420 2.137 23.053 0.001 0.001 -0.001 2.248
314 1 15.158 0.049 32.046 -0.004 0.001 0.001 2.321
315 1 18.302 2.042 32.203 0.001 -0.001 0.006 2.216
316 1 15.305 0.227 41.448 0.002 0.001 0.000 2.282
317 1 18.098 2.018 41.537 0.002 -0.004 -0.004 2.359
320 1 13.752 1.988 19.922 0.000 0.000 -0.000 2.164
321 1 17.064 0.459 19.618 0.000 0.000 -0.000 2.199
322 1 14.195 2.155 28.994 0.006 -0.003 0.000 2.217
323 1 17.213 0.128 28.920 0.005 -0.002 0.001 2.242
324 2 13.900 2.004 38.374 -0.003 0.001 -0.006 1.662
328 3 12.549 3.936 19.387 0.000 0.000 -0.000 -1.078
329 3 15.921 6.204 19.412 0.000 0.000 -0.000 -1.078
330 3 13.168 3.922 28.384 0.007 0.005 -0.003 -1.171
331 3 15.998 6.224 28.200 0.011 -0.012 -0.005 -1.195
332 3 12.803 3.957 38.858 -0.008 -0.007 -0.004 -1.012
333 3 16.298 6.011 37.666 -0.000 0.003 0.000 -1.187
336 3 14.345 5.633 21.661 0.010 0.004 0.004 -1.011
337 3 17.827 4.003 21.852 -0.010 -0.005 -0.005 -1.143
338 3 14.127 7.606 30.061 0.004 0.009 -0.006 -1.085
339 3 16.988 3.748 32.156 0.006 0.001 -0.010 -1.121
340 3 14.276 6.069 40.695 -0.013 -0.002 -0.013 -1.161
341 3 17.351 3.869 41.235 0.001 0.008 -0.005 -1.185
344 3 18.484 5.776 25.540 -0.003 -0.024 0.009 -1.140
345 3 15.120 3.992 34.530 -0.007 0.005 -0.006 -1.078
346 3 18.122 5.677 35.284 0.003 0.009 -0.003 -1.087
349 3 12.527 3.729 23.457 -0.002 0.005 -0.010 -1.095
350 3 16.328 5.866 23.793 -0.003 -0.010 -0.018 -1.098
351 3 14.281 5.309 25.861 0.001 -0.005 0.006 -1.096
352 3 16.877 3.872 26.595 -0.012 -0.006 -0.001 -1.137
353 3 14.105 5.207 36.529 0.008 -0.010 0.022 -1.112
354 3 16.397 3.525 36.515 0.005 -0.009 -0.001 -1.092
355 3 13.155 4.327 41.892 0.003 0.002 0.004 -1.014
356 3 16.389 5.816 42.354 -0.008 -0.000 0.006 -1.139
361 3 14.403 5.638 31.632 0.002 -0.008 0.009 -1.090
362 3 16.312 6.010 33.392 -0.009 -0.004 -0.008 -1.124
363 3 15.037 3.722 19.639 0.000 0.000 -0.000 -1.149
364 3 18.493 5.606 19.488 0.000 0.000 -0.000 -1.143
365 3 15.290 4.095 29.788 0.007 0.008 -0.003 -1.172
366 3 17.709 5.453 30.169 -0.001 -0.012 0.003 -1.020
367 3 15.461 4.134 39.412 -0.004 -0.003 0.003 -1.136
368 3 18.144 5.897 39.189 0.006 0.005 0.003 -1.148
371 1 12.732 3.961 26.266 -0.008 -0.004 0.002 2.159
372 1 16.275 5.877 26.102 -0.003 0.002 0.001 2.155
373 1 12.949 3.867 35.123 0.002 -0.000 0.006 2.254
374 1 15.995 5.716 35.492 0.002 0.002 0.002 2.263
377 2 14.964 3.771 23.125 -0.001 -0.004 0.002 1.631
378 1 18.430 5.664 23.167 0.001 0.005 -0.001 2.186
379 1 14.970 3.686 32.115 -0.010 -0.002 0.000 2.325
380 1 18.105 5.633 32.353 0.004 -0.001 0.005 2.323
381 1 15.204 4.111 41.502 -0.004 -0.001 -0.004 2.252
382 1 18.235 5.841 41.288 0.002 0.004 0.002 2.274
385 1 13.797 5.702 19.676 0.000 0.000 -0.000 2.164
386 1 17.074 4.184 19.822 0.000 0.000 -0.000 2.057
387 1 14.100 5.696 29.234 0.003 0.001 0.003 2.352
388 1 17.274 3.725 28.904 -0.001 0.002 0.002 2.167
389 1 13.984 5.736 38.641 -0.008 -0.000 -0.001 2.263
390 1 17.266 4.140 38.273 0.002 0.003 -0.006 2.229
394 3 22.553 2.319 19.102 0.000 0.000 -0.000 -0.996
395 3 19.145 0.548 28.155 -0.011 0.002 -0.003 -1.069
396 3 22.749 2.033 29.041 0.004 -0.001 -0.000 -1.112
397 3 17.168 0.845 36.601 0.006 0.019 -0.003 -1.085
398 3 22.124 2.611 37.350 0.009 -0.005 -0.009 -1.062
401 3 20.404 2.072 22.729 -0.006 -0.008 0.003 -1.189
402 3 23.568 0.072 22.055 -0.001 0.001 0.013 -1.164
403 3 20.318 1.924 31.938 -0.004 -0.005 -0.005 -1.228
404 3 23.393 0.338 31.117 -0.008 -0.019 -0.005 -1.180
405 3 20.102 2.218 41.224 -0.006 0.010 -0.007 -1.157
406 3 23.294 0.247 41.347 -0.004 0.005 0.003 -1.146
409 3 21.436 0.260 26.033 0.009 0.003 -0.004 -1.197
410 3 24.769 2.293 25.274 -0.006 -0.001 0.006 -1.149
411 3 20.807 0.557 34.288 0.007 -0.002 -0.003 -1.065
412 3 24.348 2.223 35.262 0.006 -0.005 -0.006 -1.064
413 3 21.538 0.004 43.514 -0.003 -0.015 -0.001 -1.168
415 3 19.453 0.206 23.940 0.000 -0.002 -0.001 -1.150
416 3 22.764 1.774 23.870 0.002 0.003 -0.013 -1.114
417 3 20.788 2.720 27.261 0.005 -0.000 0.008 -1.225
418 3 23.863 0.528 26.965 0.006 -0.008 -0.000 -1.187
419 3 20.028 2.094 36.287 -0.010 0.003 -0.001 -1.188
420 3 22.668 0.054 36.571 0.003 -0.006 -0.006 -1.124
422 3 22.570 2.713 42.399 -0.014 -0.002 0.008 -1.182
427 3 18.446 0.047 33.371 -0.008 0.009 -0.004 -1.063
428 3 22.544 1.961 33.151 0.004 0.003 -0.003 -1.158
429 3 21.127 0.328 20.740 0.000 0.000 -0.000 -1.060
430 3 23.428 2.578 21.581 0.009 0.013 -0.003 -1.005
431 3 21.146 0.156 30.086 -0.003 -0.002 -0.004 -1.214
432 3 24.710 2.652 30.150 -0.015 0.003 0.007 -1.132
433 3 21.347 0.929 39.527 -0.001 0.014 -0.005 -1.129
434 3 23.755 2.202 39.425 -0.011 -0.002 0.001 -1.144
438 1 22.529 2.057 26.110 -0.004 -0.002 -0.003 2.265
439 1 19.037 0.232 35.426 0.001 0.003 0.000 2.246
440 1 22.206 1.998 35.317 0.004 -0.002 0.002 2.165
443 1 21.401 0.346 22.885 -0.000 0.002 -0.002 2.252
444 1 24.697 1.934 23.159 -0.005 -0.000 0.001 2.267
445 1 21.387 0.183 32.134 -0.004 0.000 -0.003 2.352
446 1 24.333 2.047 32.171 0.002 -0.003 -0.002 2.246
447 1 21.187 0.349 41.431 -0.001 0.003 -0.001 2.281
448 1 24.415 2.112 41.429 -0.003 -0.002 0.006 2.254
451 2 20.178 2.057 19.185 0.000 0.000 -0.000 1.653
452 1 23.654 0.697 20.057 0.000 0.000 -0.000 2.117
453 1 20.625 1.970 29.181 -0.000 0.000 -0.001 2.242
454 1 23.788 0.084 29.008 0.002 -0.007 0.004 2.253
455 1 20.080 2.128 38.386 0.004 0.003 0.001 2.356
456 1 23.258 0.327 38.634 0.001 -0.003 0.001 2.271
459 3 22.396 6.231 19.569 0.000 0.000 -0.000 -1.069
460 3 19.048 4.672 28.177 0.003 -0.002 -0.008 -1.163
461 3 22.492 5.958 28.802 0.001 0.002 0.001 -1.178
462 3 19.147 4.207 37.530 0.018 0.012 0.002 -1.257
463 3 22.473 5.753 38.042 -0.007 -0.002 0.007 -1.188
466 3 20.395 5.424 22.191 0.007 -0.004 0.004 -1.216
467 3 23.123 4.671 22.133 0.009 -0.001 -0.006 -1.079
468 3 20.652 5.831 31.385 0.014 0.005 0.001 -1.145
469 3 23.471 3.953 32.086 -0.008 -0.010 0.001 -1.150
470 3 20.243 6.333 40.295 -0.013 -0.012 0.011 -1.119
471 3 23.211 4.563 40.428 -0.027 -0.005 0.010 -1.064
474 3 21.501 3.754 25.223 0.017 -0.002 -0.002 -1.138
475 3 24.422 5.144 25.072 0.017 0.005 0.012 -1.144
476 3 21.636 3.978 34.526 0.008 0.004 0.003 -1.286
477 3 25.037 5.639 34.333 -0.006 0.002 -0.010 -1.141
480 3 19.288 3.786 24.166 -0.004 -0.002 -0.003 -1.178
481 3 22.230 5.970 24.301 -0.002 0.007 0.002 -1.106
482 3 20.828 5.987 26.982 0.002 -0.003 0.005 -1.090
483 3 23.440 3.846 27.052 -0.007 -0.003 0.008 -1.231
484 3 20.701 5.632 36.090 -0.001 0.001 -0.002 -1.199
485 3 23.993 4.593 36.346 -0.003 -0.009 -0.007 -1.100
486 3 19.683 4.690 42.545 0.003 0.007 -0.008 -1.018
487 3 22.130 5.763 42.349 -0.001 0.005 -0.008 -1.127
492 3 19.421 4.282 33.066 0.005 -0.003 -0.001 -1.207
493 3 22.774 6.295 33.254 0.009 -0.008 0.000 -1.262
494 3 21.183 4.279 19.663 0.000 0.000 -0.000 -1.021
495 3 24.817 5.508 20.070 0.000 0.000 -0.000 -1.133
496 3 21.413 3.877 30.103 0.006 -0.004 -0.009 -1.210
497 3 24.710 5.433 30.177 -0.007 -0.009 -0.001 -1.116
498 3 20.877 3.774 39.338 0.004 -0.003 -0.002 -1.156
499 3 25.000 6.331 39.594 -0.011 -0.001 0.001 -1.084
502 1 19.520 3.806 26.232 0.001 0.002 0.000 2.333
503 1 22.807 5.634 26.192 -0.001 0.001 -0.003 2.324
504 1 19.551 4.013 35.305 0.001 -0.001 0.001 2.224
505 1 22.508 5.771 35.217 -0.000 0.001 -0.001 2.354
508 1 21.439 3.988 23.162 -0.002 -0.003 -0.001 2.228
509 1 24.751 5.706 23.125 -0.001 0.003 -0.001 2.295
510 1 21.333 3.834 32.337 -0.004 0.002 0.002 2.236
511 1 24.394 5.871 32.202 0.005 0.001 -0.001 2.318
512 1 21.382 3.974 41.340 -0.007 -0.003 0.001 2.289
513 1 24.685 5.757 41.596 -0.001 0.004 -0.001 2.300
516 1 20.403 6.034 20.157 0.000 0.000 -0.000 2.298
517 1 23.352 3.966 19.998 0.000 0.000 -0.000 2.264
518 1 20.528 5.651 29.318 -0.009 -0.007 -0.000 2.306
519 1 23.572 3.928 29.177 -0.003 0.001 -0.001 2.297
520 1 20.352 5.722 38.289 -0.003 -0.000 0.002 2.321
521 1 23.487 3.976 38.344 -0.005 -0.003 -0.003 2.348
524 3 25.592 0.122 19.242 0.000 0.000 -0.000 -1.070
528 3 25.173 0.876 37.972 0.003 -0.006 -0.003 -1.088
545 3 25.657 0.137 23.943 0.000 0.002 0.001 -1.276
551 3 25.633 0.621 42.448 -0.007 -0.009 -0.008 -1.255
557 3 25.386 0.318 32.726 0.006 -0.003 0.002 -1.146
567 1 25.674 0.339 26.037 0.007 0.004 0.007 2.253
569 2 25.522 0.132 35.722 0.007 0.004 -0.005 1.633
589 3 24.997 2.634 19.510 0.000 0.000 -0.000 -1.031
593 3 25.487 3.925 38.325 -0.002 -0.014 -0.007 -1.232
616 3 25.113 3.951 42.348 -0.003 0.003 -0.008 -1.149
634 1 25.642 3.849 35.326 -0.001 -0.004 0.000 2.312
2080 3 0.080 7.586 18.848 0.000 0.000 -0.000 -1.111
2081 3 2.664 8.225 19.641 0.000 0.000 -0.000 -0.963
2083 3 3.830 10.125 27.752 0.005 0.004 0.010 -1.007
2085 3 3.239 9.285 37.924 0.010 0.013 0.005 -1.173
2088 3 1.121 9.900 21.836 -0.005 -0.010 0.007 -1.139
2089 3 4.195 7.855 22.132 0.003 0.010 0.008 -1.150
2090 3 1.536 9.627 31.931 -0.006 0.008 -0.006 -1.106
2091 3 3.734 7.293 31.162 0.003 0.010 -0.006 -1.097
2092 3 1.128 9.658 40.762 -0.010 -0.011 -0.007 -1.181
2093 3 4.837 7.851 40.426 0.002 -0.007 0.004 -0.939
2096 3 2.098 7.245 25.718 0.002 0.004 0.007 -1.173
2097 3 4.978 9.748 25.175 0.002 0.007 0.006 -1.094
2098 3 2.045 7.382 35.509 -0.010 0.002 0.012 -1.122
2099 3 6.381 9.472 34.853 -0.004 -0.002 0.007 -1.010
2102 3 0.375 7.819 23.821 0.006 -0.006 -0.008 -1.306
2103 3 2.902 9.138 23.973 -0.009 0.005 0.000 -1.204
2104 3 1.044 9.453 26.762 -0.004 -0.019 0.001 -1.308
2105 3 4.592 7.526 26.362 0.004 -0.003 0.015 -1.171
2106 3 0.760 9.322 36.287 0.004 0.001 0.006 -1.192
2107 3 4.702 8.329 36.420 -0.008 0.000 -0.005 -1.077
2109 3 3.314 9.487 42.181 -0.002 -0.005 -0.004 -1.316
2114 3 0.253 7.835 33.531 -0.005 0.002 0.006 -1.025
2115 3 3.423 8.659 33.682 0.014 0.009 0.013 -1.080
2116 3 1.883 7.109 20.988 0.000 0.000 -0.000 -1.010
2117 3 5.332 9.411 19.736 0.000 0.000 -0.000 -1.095
2118 3 2.979 8.909 29.038 -0.005 -0.005 -0.002 -0.986
2119 3 5.402 9.266 29.603 -0.004 0.001 0.008 -1.107
2120 3 2.040 7.521 39.431 0.005 -0.006 -0.002 -1.149
2121 3 5.698 9.991 39.497 -0.004 -0.000 0.006 -1.070
2124 1 0.022 7.669 25.854 -0.002 -0.003 0.003 2.187
2125 1 3.101 9.195 26.051 0.000 0.003 -0.006 2.245
2127 1 3.024 9.266 35.636 -0.002 -0.000 -0.002 2.261
2130 1 2.297 7.401 22.960 -0.006 -0.003 -0.001 2.251
2131 1 5.366 9.358 23.124 0.001 0.003 -0.001 2.251
2132 1 2.087 7.632 32.449 -0.001 0.001 -0.005 2.217
2133 2 5.465 9.495 32.576 -0.000 -0.005 0.004 1.676
2134 1 2.072 7.848 41.586 0.006 -0.003 -0.004 2.192
2135 1 5.372 9.385 41.762 -0.003 -0.002 -0.004 2.301
2138 1 0.977 9.496 19.852 0.000 0.000 -0.000 2.203
2139 1 4.366 7.432 20.081 0.000 0.000 -0.000 2.305
2140 1 1.168 9.770 28.832 -0.004 -0.000 -0.001 2.209
2141 1 4.433 7.368 29.159 0.003 -0.003 0.000 2.256
2142 1 1.146 9.283 38.488 0.001 0.001 0.003 2.206
2143 1 4.246 7.392 38.498 0.002 0.000 -0.001 2.259
2146 3 0.022 11.240 19.029 0.000 0.000 -0.000 -1.041
2147 3 3.170 13.236 19.491 0.000 0.000 -0.000 -1.044
2148 3 0.831 11.674 27.894 0.005 0.004 -0.009 -1.149
2149 3 4.257 13.048 28.421 -0.011 -0.003 0.010 -1.128
2151 3 3.922 13.139 37.741 -0.005 0.008 -0.004 -1.117
2154 3 0.958 13.137 22.053 0.004 0.008 0.000 -1.099
2155 3 4.164 10.945 22.091 -0.002 0.014 -0.008 -1.054
2156 3 1.063 13.311 31.489 -0.010 0.017 0.007 -1.238
2157 3 4.187 11.507 31.588 0.001 0.006 -0.004 -1.122
2158 3 1.566 13.225 40.670 0.003 0.000 0.009 -1.080
2159 3 4.034 11.787 40.704 -0.010 0.004 -0.014 -1.109
2162 3 2.279 11.354 25.277 0.005 0.005 0.006 -1.086
2163 3 5.790 13.426 25.356 0.021 0.002 -0.002 -1.182
2164 3 2.067 11.046 34.664 0.002 0.007 0.018 -1.219
2165 3 5.230 12.153 34.358 -0.004 -0.014 0.004 -1.049
2166 3 2.367 11.371 43.560 -0.008 -0.005 0.001 -1.217
2168 3 0.151 11.349 23.649 0.008 0.011 0.002 -1.222
2169 3 3.251 13.031 23.587 0.001 -0.014 -0.003 -1.152
2170 3 0.140 13.320 25.542 -0.006 0.003 0.000 -0.904
2171 3 1.401 12.974 36.409 -0.010 -0.007 -0.009 -1.149
2172 3 4.148 10.979 36.315 0.000 0.007 -0.006 -1.224
2173 3 0.008 11.779 42.089 0.006 0.010 -0.012 -1.068
2174 3 3.438 13.486 42.620 0.005 0.007 -0.000 -1.087
2179 3 0.199 12.044 33.222 -0.016 0.001 0.003 -1.068
2180 3 3.199 13.099 33.308 -0.010 -0.005 -0.010 -1.208
2181 3 2.388 10.949 19.611 0.000 0.000 -0.000 -1.076
2182 3 5.581 12.872 19.891 0.000 0.000 -0.000 -1.131
2183 3 2.259 11.496 30.033 -0.005 -0.008 0.001 -1.157
2184 3 5.543 13.754 30.504 -0.017 0.009 -0.016 -1.117
2185 3 2.055 11.216 39.030 0.012 -0.001 0.012 -1.232
2186 3 5.973 13.757 39.816 -0.010 0.005 0.004 -1.087
2190 2 3.092 13.330 26.412 0.001 0.000 0.004 1.604
2191 1 0.116 11.183 35.321 -0.002 0.000 0.005 2.233
2192 1 3.316 12.798 35.556 0.001 -0.000 0.003 2.160
2195 1 2.303 11.149 23.262 -0.001 0.003 -0.003 2.198
2196 1 5.316 13.416 23.361 0.001 0.005 -0.003 2.125
2197 1 2.095 11.544 32.329 -0.002 0.003 0.005 2.216
2198 1 5.184 13.292 32.521 -0.006 0.000 0.002 2.287
2199 1 2.065 11.318 41.437 0.004 0.002 0.005 2.312
2200 1 5.432 13.120 41.752 -0.005 -0.002 -0.003 2.204
2203 1 1.045 12.961 19.923 0.000 0.000 -0.000 2.105
2204 1 4.396 11.329 20.041 0.000 0.000 -0.000 2.130
2205 1 0.902 13.173 29.410 0.004 0.002 -0.007 2.199
2206 1 4.350 11.136 29.438 -0.002 -0.001 0.002 2.232
2207 1 1.064 13.002 38.498 -0.001 -0.005 0.001 2.238
2208 1 4.182 11.181 38.642 -0.007 0.006 -0.004 2.253
2211 3 6.518 7.309 19.536 0.000 0.000 -0.000 -1.084
2212 3 9.572 9.336 18.992 0.000 0.000 -0.000 -1.108
2213 3 6.253 6.911 28.140 0.012 -0.000 0.010 -1.159
2214 3 10.204 9.655 28.000 0.003 0.013 0.004 -1.103
2215 3 6.531 7.556 37.908 -0.002 0.001 0.000 -1.202
2216 3 9.994 9.418 37.693 -0.004 -0.018 0.008 -1.202
2219 3 7.165 9.026 22.123 0.002 -0.012 0.004 -1.174
2220 3 10.622 7.705 22.892 -0.005 -0.012 0.002 -1.101
2221 3 7.874 9.574 32.121 -0.011 -0.008 -0.006 -1.029
2222 3 10.653 7.251 31.924 -0.006 -0.018 0.006 -1.036
2223 3 7.954 9.406 40.901 0.004 0.000 -0.011 -1.160
2224 3 10.913 7.459 40.660 -0.007 0.005 0.005 -1.174
2227 3 8.163 8.332 24.814 0.002 0.004 -0.007 -1.137
2228 3 12.075 9.251 25.585 0.014 -0.011 0.011 -1.216
2229 3 8.562 7.605 35.531 -0.013 -0.005 0.003 -1.109
2230 3 11.595 9.717 35.209 -0.001 -0.003 -0.005 -1.106
2233 3 6.005 7.414 23.872 0.006 0.002 -0.001 -1.087
2234 3 10.013 9.867 23.957 -0.005 0.000 0.014 -1.011
2235 3 7.436 9.197 27.218 0.001 -0.006 0.014 -1.152
2236 3 9.967 7.440 26.497 -0.004 -0.001 0.005 -1.081
2237 3 7.818 10.137 36.687 0.009 0.001 0.001 -1.188
2238 3 10.773 7.226 36.462 0.005 0.007 -0.011 -1.037
2239 3 6.485 7.747 42.310 0.007 0.002 0.011 -1.212
2240 3 10.069 8.806 42.549 0.009 0.004 -0.006 -1.051
2245 3 6.540 7.226 32.653 -0.004 0.001 -0.009 -1.084
2246 3 9.618 8.561 33.629 0.018 0.000 0.004 -1.004
2247 3 8.949 7.610 20.784 0.000 0.000 -0.000 -1.238
2248 3 12.070 8.837 20.735 0.000 0.000 -0.000 -1.026
2249 3 8.055 7.605 30.198 -0.001 -0.006 0.006 -1.122
2250 3 8.606 7.604 39.202 -0.002 -0.005 0.005 -1.174
2251 3 11.947 9.275 39.112 0.016 0.003 -0.007 -1.188
2254 1 6.612 7.669 26.047 -0.000 0.001 -0.000 2.278
2255 1 9.752 9.511 25.920 0.006 0.001 -0.003 2.286
2256 1 6.485 7.524 35.706 0.000 0.008 0.004 2.254
2257 1 9.543 9.514 35.564 -0.002 0.002 -0.002 2.348
2260 1 8.543 7.491 22.887 0.006 -0.004 0.002 2.284
2261 1 11.815 9.413 22.739 -0.004 -0.007 -0.005 2.302
2262 1 8.513 7.559 32.281 -0.005 0.000 -0.002 2.318
2263 2 11.554 9.354 32.381 0.003 -0.010 0.002 1.650
2264 1 8.537 7.482 41.538 0.003 -0.001 0.005 2.241
2265 1 11.841 9.289 41.381 -0.004 -0.003 -0.002 2.256
2268 1 7.585 9.207 19.958 0.000 0.000 -0.000 2.116
2269 1 10.717 7.534 19.765 0.000 0.000 -0.000 2.139
2270 1 7.566 9.471 29.266 0.002 -0.004 -0.003 2.078
2271 2 11.138 7.532 28.582 -0.002 -0.001 0.001 1.658
2272 1 7.530 9.406 38.692 -0.000 0.002 0.001 2.220
2273 1 10.655 7.629 38.558 -0.002 0.001 -0.000 2.317
2276 3 7.643 11.249 20.014 0.000 0.000 -0.000 -0.922
2277 3 11.348 13.113 19.059 0.000 0.000 -0.000 -1.013
2278 3 6.529 11.449 29.155 -0.008 -0.001 -0.006 -1.185
2279 3 10.614 13.301 28.138 -0.001 -0.003 -0.003 -1.156
2280 3 6.219 11.808 37.975 -0.004 -0.006 0.015 -1.116
2281 3 9.117 13.824 37.254 -0.013 -0.017 -0.006 -1.087
2284 3 8.021 13.654 21.876 0.011 0.001 0.005 -1.151
2285 3 10.686 10.503 21.366 0.000 0.000 -0.000 -1.044
2286 3 6.982 12.256 31.723 0.002 0.003 -0.020 -1.106
2287 3 9.250 10.227 30.385 -0.005 -0.007 -0.006 -1.041
2288 3 8.184 13.146 41.105 0.002 -0.009 -0.009 -1.149
2289 3 10.640 10.867 40.772 -0.007 -0.008 0.000 -1.105
2292 3 8.825 11.356 26.003 -0.011 0.010 -0.002 -1.052
2293 3 13.347 12.898 26.102 0.009 0.007 0.001 -0.934
2294 3 9.030 11.153 34.485 -0.004 -0.007 0.000 -1.100
2295 3 11.295 13.916 34.361 -0.001 -0.003 -0.003 -1.107
2298 3 5.738 11.361 22.985 -0.010 0.001 0.012 -0.994
2299 3 10.045 13.237 24.205 0.008 0.004 -0.007 -1.178
2300 3 7.878 13.504 27.492 0.008 0.000 -0.005 -1.110
2301 3 11.067 11.627 26.551 0.002 0.001 0.007 -1.072
2302 3 7.169 13.063 35.594 -0.011 -0.001 0.012 -1.076
2303 3 10.710 11.828 36.339 -0.011 0.001 0.006 -1.240
2304 3 6.530 11.225 41.984 -0.003 -0.002 0.008 -1.163
2305 3 10.040 12.264 42.838 -0.004 0.002 0.015 -0.996
2310 3 10.740 11.624 32.019 0.008 0.010 -0.017 -1.146
2311 3 8.887 11.933 18.888 0.000 0.000 -0.000 -0.846
2312 3 11.404 13.368 21.411 0.000 0.000 -0.000 -1.118
2313 3 9.169 12.489 29.908 -0.002 -0.001 0.006 -1.119
2314 3 12.061 13.564 30.053 0.001 -0.005 0.023 -1.072
2315 3 8.708 11.358 39.028 -0.005 -0.006 -0.007 -1.149
2316 3 10.894 13.178 39.083 -0.011 0.007 -0.008 -1.049
2318 2 6.389 11.302 26.285 -0.002 0.000 0.007 1.639
2319 1 9.729 13.249 26.299 -0.000 0.006 0.003 2.329
2320 1 6.296 11.222 35.979 0.003 0.003 -0.003 2.290
2321 1 9.590 13.117 35.301 -0.006 -0.002 0.004 2.318
2324 2 8.872 11.532 22.672 0.004 0.003 0.001 1.601
2325 1 11.902 13.225 23.267 -0.001 0.002 0.000 2.278
2326 1 8.757 11.478 32.180 0.003 0.004 0.001 2.275
2327 1 11.998 13.203 32.256 -0.000 -0.004 0.002 2.213
2328 1 8.630 11.191 41.675 -0.001 -0.001 -0.000 2.309
2329 2 11.742 13.124 41.341 0.004 0.006 0.004 1.660
2332 1 7.668 13.405 19.823 0.000 0.000 -0.000 2.161
2333 1 10.750 11.063 19.356 0.000 0.000 -0.000 2.096
2334 1 7.306 13.269 29.599 -0.000 0.002 -0.004 2.334
2335 1 10.686 11.417 29.049 0.000 -0.004 -0.004 2.190
2336 1 7.674 13.166 38.761 -0.000 0.001 -0.002 2.209
2337 1 10.716 11.208 38.378 0.002 0.004 0.001 2.280
2340 3 12.823 7.387 18.914 0.000 0.000 -0.000 -1.117
2341 3 16.304 9.456 19.283 0.000 0.000 -0.000 -1.096
2342 3 13.074 6.527 27.667 -0.016 0.004 -0.003 -1.061
2343 3 16.267 9.469 28.440 -0.011 -0.002 0.003 -1.227
2344 3 11.474 5.314 34.198 0.005 -0.002 -0.004 -1.092
2345 3 16.067 9.770 38.273 -0.006 0.012 0.005 -1.216
2348 3 13.853 9.117 22.788 0.008 0.006 -0.003 -1.049
2349 3 17.513 6.951 21.791 0.000 0.006 0.008 -0.988
2350 3 14.410 9.634 31.901 -0.000 0.001 -0.004 -1.144
2351 3 18.188 7.552 31.523 0.002 0.005 -0.001 -0.974
2352 3 14.121 9.037 40.685 0.006 -0.005 0.008 -1.085
2353 3 16.956 7.692 40.719 -0.001 0.005 -0.008 -1.173
2356 3 15.082 7.945 25.862 -0.001 -0.004 -0.001 -1.157
2357 3 18.069 9.744 25.107 -0.003 0.005 0.012 -1.180
2358 3 15.381 7.717 35.468 -0.004 0.007 -0.012 -1.085
2359 3 18.923 9.515 34.402 -0.019 -0.016 0.003 -1.006
2362 3 13.308 6.864 23.641 0.002 -0.005 -0.004 -1.164
2363 3 16.914 8.356 22.816 0.005 0.008 0.002 -0.964
2364 3 13.109 9.979 28.366 0.008 -0.008 0.006 -1.048
2365 3 17.736 7.729 26.867 -0.010 0.009 -0.004 -1.189