ITEM: TIMESTEP
70000
ITEM: NUMBER OF ATOMS
37374
ITEM: BOX BOUNDS pp pp pp
0.000000 102.779942
0.000000 118.660062
0.000000 130.735200
ITEM: ATOMS id type x y z vx vy vz q
2 3 3.194 2.308 19.117 0.000 0.000 0.000 -1.049
4 3 3.072 2.229 29.249 -0.001 0.004 0.005 -1.010
6 3 3.383 1.932 37.157 0.004 -0.001 0.007 -1.232
9 3 1.242 2.128 21.934 -0.002 -0.004 -0.012 -1.139
11 3 1.227 2.646 31.436 0.002 -0.007 0.003 -1.220
13 3 0.670 1.777 41.315 -0.010 -0.009 -0.010 -1.118
18 3 5.527 1.826 25.698 -0.010 -0.009 0.008 -1.143
20 3 5.247 2.016 34.703 -0.001 -0.011 0.001 -1.278
24 3 3.387 2.276 23.767 0.005 -0.006 -0.014 -1.197
30 3 3.642 2.414 42.564 0.002 -0.005 -0.016 -1.074
36 3 3.054 2.296 33.007 0.003 0.002 -0.004 -1.197
37 3 1.881 0.228 19.742 0.000 0.000 0.000 -1.202
38 3 5.513 1.819 19.848 0.000 0.000 0.000 -1.062
40 3 5.042 2.094 30.007 0.004 0.003 0.006 -1.124
42 3 5.011 2.191 39.536 -0.003 -0.001 0.011 -1.198
46 2 3.108 2.295 26.116 0.003 0.004 -0.003 1.640
48 1 3.040 2.059 35.235 -0.002 0.003 0.001 2.183
52 1 5.332 2.006 22.812 -0.002 0.002 0.001 2.182
54 1 5.225 2.228 32.209 -0.003 0.004 -0.002 2.269
56 1 5.439 1.861 41.584 0.003 0.002 -0.003 2.315
59 1 1.108 2.215 19.775 0.000 0.000 0.000 2.201
60 1 4.018 0.309 19.738 0.000 0.000 0.000 2.247
61 1 0.935 2.355 29.387 -0.002 0.001 0.001 2.260
63 1 1.032 1.991 38.073 -0.000 0.005 -0.003 2.458
67 3 0.086 4.021 19.084 0.000 0.000 0.000 -1.087
68 3 3.421 5.669 19.058 0.000 0.000 0.000 -1.085
70 3 3.523 6.215 28.194 -0.022 0.000 -0.001 -1.215
72 3 2.738 6.137 37.706 0.004 0.006 -0.005 -1.022
76 3 4.174 3.335 21.608 0.004 0.000 -0.005 -1.245
77 3 0.625 6.192 31.196 -0.004 -0.011 0.004 -1.186
78 3 4.263 4.202 31.651 -0.001 -0.007 0.006 -1.353
80 3 3.977 4.593 40.408 0.005 -0.007 0.009 -1.058
83 3 1.876 4.902 26.281 0.003 0.002 0.005 -1.019
84 3 5.204 5.075 25.095 0.004 0.008 -0.015 -1.150
85 3 2.029 4.152 35.359 -0.005 0.003 0.012 -1.122
86 3 4.415 7.756 36.550 0.005 0.001 -0.001 -1.299
89 3 0.739 3.514 24.214 0.002 -0.005 -0.003 -0.898
90 3 3.625 5.607 23.554 -0.007 0.002 -0.003 -1.198
92 3 4.505 3.995 27.147 0.004 0.018 0.000 -1.103
94 3 4.557 4.119 36.051 -0.001 -0.003 0.004 -1.200
96 3 3.065 5.880 42.693 -0.010 -0.009 -0.005 -1.018
102 3 2.437 5.709 33.650 -0.001 -0.003 -0.007 -1.172
103 3 1.960 4.014 20.727 0.000 0.000 0.000 -1.078
104 3 5.058 5.763 20.991 0.000 0.000 0.000 -1.099
105 3 2.661 4.598 29.849 -0.007 -0.003 0.001 -1.176
106 3 5.607 5.805 30.309 -0.003 0.002 -0.002 -1.327
107 3 1.964 3.701 38.478 -0.003 -0.000 -0.006 -1.123
108 3 6.848 3.680 37.664 0.003 -0.007 -0.001 -1.282
112 1 3.561 5.778 26.355 0.003 -0.008 0.001 2.342
114 1 3.391 5.768 35.419 -0.001 -0.001 -0.001 2.318
117 1 2.409 3.742 22.724 -0.007 -0.006 -0.007 2.265
118 1 5.642 5.574 23.261 0.004 0.000 0.000 2.314
119 1 2.201 4.162 32.345 0.001 0.002 -0.001 2.220
120 1 5.489 5.524 32.453 -0.002 0.004 0.000 2.251
121 2 1.993 3.934 41.529 -0.002 -0.001 0.001 1.733
122 1 5.216 5.596 41.603 -0.003 -0.007 0.001 2.246
125 1 1.243 5.880 19.517 0.000 0.000 0.000 2.099
126 1 4.463 3.941 19.823 0.000 0.000 0.000 2.222
127 1 1.286 5.902 29.311 0.000 0.003 -0.001 2.344
128 1 4.417 3.947 29.544 0.001 -0.004 -0.002 2.317
129 1 0.872 5.554 38.395 -0.004 -0.002 0.002 2.202
130 1 4.307 3.659 38.401 -0.001 -0.005 0.000 2.162
134 3 9.828 2.071 19.444 0.000 0.000 0.000 -1.061
138 3 8.197 3.564 35.048 -0.006 -0.005 0.004 -1.210
141 3 7.311 1.203 21.885 -0.009 0.001 0.008 -1.110
143 3 7.302 2.003 31.157 -0.027 -0.001 0.004 -0.872
144 3 10.672 1.374 30.733 0.003 0.007 0.001 -1.117
145 3 7.058 1.223 40.427 -0.005 0.016 0.001 -1.144
150 3 12.314 2.628 24.844 0.010 -0.002 0.010 -0.976
152 3 12.309 1.964 34.246 0.008 -0.000 -0.003 -1.132
156 3 9.754 1.731 23.907 0.013 0.012 -0.003 -1.184
157 3 9.232 1.682 28.644 0.003 0.008 -0.000 -1.061
159 3 6.433 1.542 37.100 -0.002 -0.003 -0.004 -1.089
162 3 8.892 2.022 42.574 -0.004 -0.009 0.007 -1.128
168 3 9.942 2.523 33.121 0.003 0.000 0.001 -1.055
169 3 8.337 0.112 19.404 0.000 0.000 0.000 -1.121
170 3 11.991 2.067 20.912 0.000 0.000 0.000 -1.109
173 3 11.276 2.116 38.953 0.013 -0.006 -0.008 -1.090
177 1 9.397 1.932 25.989 0.004 -0.003 0.001 2.111
179 1 10.015 2.181 35.432 -0.005 0.005 0.007 2.086
183 1 11.507 2.088 22.926 -0.006 -0.006 -0.004 2.211
185 1 11.859 2.222 32.200 0.001 -0.001 0.008 2.336
187 2 11.657 2.399 41.842 -0.004 -0.000 0.003 1.677
190 1 7.618 2.008 20.016 0.000 0.000 0.000 2.194
192 1 7.164 1.585 29.111 0.004 0.002 -0.004 2.385
194 1 7.698 2.192 38.672 -0.006 0.001 -0.002 2.279
198 3 6.608 4.036 19.356 0.000 0.000 0.000 -1.086
199 3 9.667 5.592 19.337 0.000 0.000 0.000 -1.142
200 3 7.290 2.119 27.260 0.006 0.012 0.004 -1.217
201 3 9.028 6.175 27.957 0.004 0.001 -0.023 -1.130
202 3 9.403 2.015 37.550 -0.005 -0.002 0.011 -1.089
203 3 9.135 5.139 37.409 0.012 -0.004 0.006 -1.117
206 3 7.363 5.906 22.249 0.010 0.004 0.002 -1.301
207 3 10.604 4.110 22.335 -0.006 0.010 0.011 -1.249
208 3 8.096 5.051 31.010 0.003 -0.006 0.007 -0.953
209 3 10.577 4.271 31.615 0.001 -0.003 0.008 -0.996
210 3 7.265 5.607 40.693 -0.000 0.004 -0.003 -1.271
211 3 10.457 4.551 41.907 -0.014 -0.004 0.007 -1.074
214 3 8.290 3.592 25.097 -0.001 -0.006 -0.003 -1.210
215 3 11.722 5.672 25.971 0.004 -0.010 0.004 -1.115
216 3 4.882 6.501 34.355 -0.004 -0.006 -0.002 -1.067
217 3 12.669 4.012 32.922 -0.003 0.007 -0.001 -1.258
220 3 6.414 3.554 23.578 -0.008 -0.000 0.004 -1.224
221 3 9.448 5.842 24.085 0.013 -0.014 0.000 -1.268
222 3 7.373 5.594 26.348 -0.004 0.001 0.000 -1.130
223 3 10.359 3.692 26.921 0.011 -0.008 -0.006 -1.143
224 3 6.949 5.721 35.919 -0.003 -0.002 -0.014 -1.038
225 3 12.285 4.867 39.284 0.010 0.005 0.000 -1.128
227 3 8.768 6.070 42.709 0.005 0.002 0.005 -0.988
231 3 6.681 3.708 32.974 0.000 -0.001 0.005 -1.125
232 3 10.251 5.555 33.777 -0.008 -0.009 0.005 -1.217
233 3 8.427 3.647 20.952 0.000 0.000 0.000 -1.309
234 3 11.762 5.978 20.872 0.000 0.000 0.000 -1.085
235 3 6.701 3.700 29.046 0.004 0.015 -0.001 -1.084
236 3 12.304 6.358 30.064 -0.009 -0.009 0.004 -1.060
237 3 9.074 3.562 39.545 -0.003 -0.012 -0.004 -1.236
238 3 12.945 7.166 38.015 -0.003 -0.017 -0.010 -1.055
241 1 6.396 3.595 26.091 0.003 0.001 0.000 2.308
242 1 9.462 5.434 26.151 -0.008 0.002 0.005 2.174
243 1 6.336 3.362 35.754 -0.010 -0.002 -0.000 2.320
244 1 9.005 5.720 35.401 -0.001 0.004 0.003 2.159
247 1 8.541 4.120 23.020 0.002 -0.005 -0.002 2.085
248 1 11.748 5.896 22.971 -0.001 0.004 0.000 2.238
249 1 8.654 4.281 32.740 0.002 -0.002 -0.001 2.265
250 1 11.780 5.968 32.207 -0.001 -0.002 0.000 2.146
251 1 8.454 3.912 41.557 0.001 0.005 -0.004 2.144
252 1 11.822 6.064 41.742 -0.004 0.005 0.002 2.320
255 1 7.677 5.633 20.123 0.000 0.000 0.000 2.137
256 1 10.605 3.818 20.133 0.000 0.000 0.000 2.170
257 1 7.353 5.713 29.298 -0.004 0.005 0.003 2.285
258 2 10.772 3.442 29.308 -0.004 -0.002 -0.000 1.569
259 1 7.407 5.557 38.495 -0.004 0.004 -0.004 2.135
260 1 10.870 4.002 38.352 -0.000 -0.007 -0.002 2.211
263 3 12.537 0.171 19.265 0.000 0.000 0.000 -0.998
264 3 17.790 2.402 19.135 0.000 0.000 0.000 -1.146
266 3 16.171 2.465 28.364 0.004 0.013 -0.008 -1.092
270 3 14.478 1.715 22.001 -0.002 -0.005 0.004 -1.058
272 3 13.424 2.546 31.118 -0.009 0.003 -0.004 -1.101
274 3 13.983 2.281 41.165 0.011 -0.001 0.003 -1.086
279 3 18.000 2.032 25.995 -0.007 -0.013 -0.010 -1.226
281 3 18.166 2.207 34.358 -0.006 -0.007 -0.001 -1.126
285 3 16.379 2.359 24.180 0.002 -0.012 -0.002 -1.078
286 3 13.604 1.870 27.193 -0.008 -0.009 0.005 -1.177
288 3 14.127 2.303 36.082 -0.012 -0.001 0.006 -1.043
291 3 16.142 2.314 42.655 -0.000 -0.004 0.001 -1.315
297 3 16.013 2.258 32.241 -0.000 -0.004 -0.009 -1.087
298 3 15.041 0.456 19.380 0.000 0.000 0.000 -1.193
299 3 17.771 1.182 21.423 0.000 0.000 0.000 -0.839
301 3 17.607 2.036 30.055 0.010 -0.002 -0.002 -1.180
303 3 16.514 2.292 37.343 -0.018 0.002 -0.001 -1.074
307 1 16.080 2.092 26.223 0.003 -0.001 0.002 2.327
309 1 16.104 2.048 35.349 -0.003 0.003 -0.002 2.261
313 1 18.028 2.441 23.124 -0.003 -0.002 -0.007 2.259
315 1 18.176 1.904 32.025 0.001 0.002 -0.003 2.148
317 1 18.177 2.226 41.434 -0.000 -0.002 0.001 2.210
320 1 13.752 1.988 19.922 0.000 0.000 0.000 2.141
321 1 17.064 0.459 19.618 0.000 0.000 0.000 2.201
322 1 14.008 2.332 29.056 -0.005 -0.002 0.001 2.342
324 2 13.730 2.329 38.609 0.000 0.004 -0.003 1.679
328 3 12.549 3.936 19.387 0.000 0.000 0.000 -1.074
329 3 15.921 6.204 19.412 0.000 0.000 0.000 -1.080
330 3 13.269 4.234 28.226 0.002 0.003 -0.012 -1.141
331 3 16.880 7.991 27.460 0.003 0.006 0.004 -0.996
332 3 11.104 6.345 39.874 0.006 -0.005 0.001 -1.019
333 3 15.797 6.824 37.674 -0.015 0.009 0.014 -1.036
336 3 13.850 5.966 21.980 -0.007 0.002 -0.002 -1.045
337 3 16.940 3.669 21.983 0.009 -0.006 0.007 -1.082
338 3 15.059 7.944 29.284 0.004 0.002 -0.010 -1.173
339 3 17.859 4.195 31.410 -0.001 0.014 0.002 -1.096
340 3 14.057 6.140 41.169 0.002 -0.002 0.019 -1.238
341 3 18.247 2.152 39.205 -0.003 0.004 0.010 -1.304
344 3 17.679 6.818 25.391 -0.006 -0.003 -0.006 -1.084
345 3 15.551 3.933 34.756 0.001 -0.017 -0.002 -1.140
346 3 18.208 5.951 34.885 0.002 -0.002 0.000 -1.254
349 3 12.562 4.215 23.839 0.014 -0.002 0.008 -0.955
350 3 15.995 6.131 23.902 0.004 -0.007 -0.001 -1.032
351 3 14.959 3.977 25.976 -0.009 0.002 -0.004 -1.107
352 3 17.378 4.826 27.091 0.011 -0.004 0.000 -1.088
353 3 13.883 5.479 35.834 0.009 0.010 0.010 -1.018
354 3 17.459 4.953 36.924 0.006 -0.006 -0.015 -1.131
356 3 16.442 5.309 42.779 0.004 -0.001 -0.006 -1.150
361 3 14.497 5.923 31.398 0.013 0.002 -0.009 -1.105
362 3 15.833 5.661 33.440 -0.004 0.006 -0.007 -1.090
363 3 15.037 3.722 19.639 0.000 0.000 0.000 -1.149
364 3 18.493 5.606 19.488 0.000 0.000 0.000 -1.130
365 3 14.682 3.908 30.201 -0.003 0.002 -0.009 -1.163
366 3 19.218 4.074 28.677 0.001 -0.002 -0.011 -1.259
367 3 15.128 4.227 38.643 0.003 0.008 0.006 -1.057
368 3 20.217 5.918 40.405 -0.001 -0.000 -0.001 -1.094
371 1 12.799 4.026 26.194 -0.001 -0.007 -0.002 2.268
372 1 15.958 6.042 26.183 -0.000 -0.000 -0.004 2.261
373 1 13.169 3.832 34.964 0.003 0.002 -0.004 2.108
374 1 16.122 5.821 35.615 -0.004 0.001 -0.001 2.228
377 2 14.867 3.964 23.121 -0.008 0.004 -0.000 1.693
378 1 18.309 6.115 23.481 0.004 -0.000 0.001 2.240
379 1 14.968 4.085 32.063 -0.006 -0.002 0.002 2.185
380 1 17.941 5.730 32.703 0.003 -0.002 0.003 2.302
381 1 15.161 3.982 42.004 0.001 -0.004 -0.005 2.114
382 1 18.389 5.887 41.529 -0.000 -0.002 0.003 2.161
385 1 13.797 5.702 19.676 0.000 0.000 0.000 2.096
386 1 17.074 4.184 19.822 0.000 0.000 0.000 2.052
387 1 14.195 5.951 29.267 0.005 -0.002 0.003 2.238
388 1 17.252 4.000 29.325 0.003 0.000 -0.000 2.225
389 1 14.101 5.954 38.943 0.003 0.003 -0.004 2.196
390 1 17.340 3.945 38.626 -0.003 0.000 0.004 2.396
394 3 22.553 2.319 19.102 0.000 0.000 0.000 -0.991
398 3 22.297 2.713 37.373 0.007 -0.003 -0.000 -0.983
401 3 20.085 2.728 22.770 0.010 0.001 -0.001 -1.069
403 3 20.123 2.532 31.311 0.006 0.013 0.007 -1.039
405 3 20.308 2.009 40.941 0.002 0.000 0.003 -1.128
412 3 24.287 2.580 35.292 0.003 -0.012 -0.008 -1.084
416 3 22.551 2.036 23.695 0.002 -0.009 0.007 -1.173
417 3 22.056 1.628 28.385 0.005 0.004 0.006 -1.038
419 3 19.813 2.010 36.489 0.005 0.009 0.003 -1.070
422 3 23.566 3.740 40.469 0.002 0.006 0.001 -1.295
428 3 22.820 2.380 33.181 -0.002 -0.000 -0.001 -1.107
429 3 21.127 0.328 20.740 0.000 0.000 0.000 -1.151
430 3 23.433 2.508 21.523 0.007 -0.001 0.003 -1.116
432 3 24.198 2.158 29.859 -0.015 0.006 0.017 -1.361
438 1 22.268 2.090 26.111 -0.000 0.001 -0.002 2.154
440 1 22.410 2.143 35.229 -0.002 0.001 -0.002 2.414
443 1 21.198 0.678 22.840 0.007 -0.004 0.001 2.109
444 1 24.565 2.097 23.134 -0.004 0.001 -0.004 2.300
446 1 24.443 2.267 31.846 0.000 0.001 0.001 2.420
448 1 24.479 2.232 41.470 0.001 -0.003 0.005 2.259
451 2 20.178 2.057 19.185 0.000 0.000 0.000 1.643
452 1 23.654 0.697 20.057 0.000 0.000 0.000 2.151
453 1 19.971 1.843 29.129 0.001 0.002 -0.005 2.137
455 1 20.350 2.139 38.622 -0.006 0.003 0.002 2.256
459 3 22.396 6.231 19.569 0.000 0.000 0.000 -1.051
460 3 20.295 2.361 26.998 -0.015 0.007 -0.004 -1.071
461 3 24.560 5.723 29.893 -0.009 -0.000 -0.000 -1.190
462 3 19.387 4.003 37.818 -0.009 0.004 0.006 -1.255
463 3 22.433 6.097 37.928 0.002 -0.012 0.007 -1.187
466 3 19.813 5.377 22.358 -0.004 -0.005 -0.003 -1.137
467 3 22.913 4.954 21.939 0.002 0.002 -0.003 -1.078
468 3 19.778 5.712 31.473 0.009 -0.001 -0.002 -1.014
469 3 23.750 4.029 31.548 0.002 -0.003 0.003 -1.177
471 3 24.931 5.808 39.337 -0.000 -0.012 -0.001 -1.289
474 3 21.267 3.901 25.270 0.002 -0.002 0.003 -1.216
475 3 24.415 5.078 25.741 -0.000 -0.005 -0.002 -1.050
476 3 21.188 3.780 34.613 -0.007 -0.007 -0.004 -1.099
480 3 18.783 4.330 24.543 -0.007 0.014 -0.005 -1.206
481 3 22.365 6.213 24.188 -0.007 -0.010 0.010 -1.369
482 3 20.221 5.740 26.841 0.004 -0.009 -0.004 -1.367
483 3 23.016 3.966 27.351 -0.005 -0.009 0.003 -1.130
484 3 20.415 5.763 36.223 0.010 0.004 -0.007 -1.287
485 3 23.451 4.506 36.421 -0.003 0.002 0.001 -1.124
486 3 16.762 3.710 40.522 -0.014 0.009 0.008 -1.178
487 3 22.170 5.824 41.756 0.003 0.001 -0.001 -1.255
492 3 19.356 4.091 33.401 0.008 -0.013 0.004 -0.933
493 3 22.146 5.728 33.347 0.001 -0.008 0.003 -1.213
494 3 21.183 4.279 19.663 0.000 0.000 0.000 -1.022
495 3 24.817 5.508 20.070 0.000 0.000 0.000 -1.103
496 3 22.009 3.786 30.620 0.014 -0.008 0.003 -0.943
498 3 21.484 4.032 39.267 -0.006 -0.004 0.006 -1.139
502 1 19.237 4.038 26.356 -0.004 0.000 0.000 2.379
503 1 22.216 5.707 26.340 -0.005 0.006 0.002 2.187
504 1 19.216 3.971 35.626 0.005 -0.005 -0.002 2.224
505 1 22.464 5.961 35.544 -0.001 0.002 0.001 2.270
508 1 21.427 4.234 23.282 0.004 0.003 -0.002 2.110
509 1 24.317 5.893 23.547 -0.001 0.001 0.000 2.083
510 1 21.307 3.843 32.578 -0.003 0.002 0.005 2.337
511 1 24.345 5.578 32.606 0.003 -0.006 0.000 2.280
512 1 21.375 3.720 41.409 -0.006 -0.004 -0.001 2.321
513 1 24.193 5.713 41.452 -0.004 -0.000 0.000 2.190
516 1 20.403 6.034 20.157 0.000 0.000 0.000 2.253
517 1 23.352 3.966 19.998 0.000 0.000 0.000 2.287
518 1 20.224 5.818 29.426 -0.006 0.007 -0.002 2.161
519 1 23.509 3.937 29.278 0.002 0.005 0.003 2.389
520 1 20.358 5.670 38.262 0.001 -0.013 -0.005 2.341
521 1 23.503 3.972 38.438 -0.003 0.000 0.003 2.285
524 3 25.592 0.122 19.242 0.000 0.000 0.000 -1.091
589 3 24.997 2.634 19.510 0.000 0.000 0.000 -1.055
2080 3 0.080 7.586 18.848 0.000 0.000 0.000 -1.101
2081 3 2.664 8.225 19.641 0.000 0.000 0.000 -0.957
2083 3 4.127 10.605 27.737 0.007 -0.008 -0.010 -0.940
2085 3 2.110 11.708 39.509 0.006 -0.016 0.006 -1.011
2088 3 1.239 10.126 21.977 -0.009 0.004 -0.005 -1.181
2089 3 4.278 7.938 22.264 -0.003 -0.013 -0.009 -1.120
2090 3 1.993 9.587 31.304 0.001 0.011 -0.009 -1.127
2091 3 4.054 6.910 32.294 0.003 0.006 0.001 -1.011
2092 3 0.941 9.262 40.888 0.000 0.008 0.014 -1.176
2093 3 5.247 5.570 38.383 -0.000 -0.010 -0.000 -1.096
2096 3 2.206 7.465 25.183 0.004 -0.005 0.016 -1.034
2097 3 5.502 9.568 25.454 0.006 -0.001 0.009 -1.139
2098 3 2.068 7.748 35.634 0.018 -0.008 0.024 -1.165
2099 3 5.445 9.369 34.890 -0.013 -0.000 0.004 -1.153
2103 3 3.147 9.281 24.019 0.001 0.009 -0.013 -1.168
2105 3 4.467 7.685 26.467 0.002 -0.005 0.003 -1.099
2107 3 2.654 10.163 37.662 -0.003 0.008 0.004 -1.107
2115 3 2.728 9.644 33.659 -0.008 -0.011 0.004 -1.206
2116 3 1.883 7.109 20.988 0.000 0.000 0.000 -1.027
2117 3 5.332 9.411 19.736 0.000 0.000 0.000 -1.087
2118 3 3.570 9.195 28.842 0.004 0.011 0.016 -0.932
2119 3 5.719 8.803 30.103 0.003 -0.001 0.002 -1.036
2120 3 2.251 8.321 39.332 -0.004 0.007 -0.016 -1.146
2121 3 5.453 9.348 38.722 0.000 -0.000 -0.008 -1.224
2125 1 3.283 9.368 26.116 -0.004 0.001 -0.004 2.347
2127 1 3.308 9.355 35.730 0.001 -0.002 -0.005 2.214
2130 1 2.412 7.235 23.040 0.003 -0.000 -0.002 2.177
2131 1 5.492 9.147 23.539 0.001 -0.005 0.005 2.272
2132 1 2.033 7.602 32.362 0.007 0.001 0.004 2.137
2133 2 4.953 9.274 32.438 0.001 0.001 -0.000 1.638
2134 1 2.192 7.556 41.492 -0.001 0.000 0.001 2.206
2135 1 5.441 9.467 41.551 0.002 0.000 0.001 2.250
2138 1 0.977 9.496 19.852 0.000 0.000 0.000 2.149
2139 1 4.366 7.432 20.081 0.000 0.000 0.000 2.267
2140 1 1.416 9.647 29.136 0.001 -0.004 -0.002 2.086
2141 1 4.558 7.265 29.433 -0.004 0.002 0.002 2.438
2142 1 0.895 9.484 38.645 0.003 -0.003 0.001 2.446
2143 1 4.118 7.494 38.608 0.002 0.002 -0.003 2.102
2146 3 0.022 11.240 19.029 0.000 0.000 0.000 -1.036
2147 3 3.170 13.236 19.491 0.000 0.000 0.000 -1.034
2149 3 4.185 13.247 28.751 0.005 -0.009 -0.004 -1.025
2151 3 3.822 12.950 37.848 -0.003 0.009 -0.004 -1.009
2154 3 1.012 13.143 22.078 0.018 0.001 0.009 -1.090
2155 3 4.211 11.302 22.221 -0.009 -0.017 0.007 -1.124
2156 3 0.540 13.967 31.963 -0.012 -0.002 0.005 -1.185
2157 3 4.525 11.486 31.356 0.010 -0.002 -0.010 -1.182
2159 3 4.121 7.330 40.906 0.014 0.002 -0.011 -1.239
2162 3 2.616 11.141 25.379 0.007 -0.007 0.008 -1.061
2163 3 5.473 13.171 25.277 0.014 0.015 -0.003 -1.045
2164 3 1.695 12.092 34.714 0.004 0.007 0.000 -1.087
2165 3 4.834 13.568 34.394 0.005 0.002 0.002 -1.207
2169 3 3.212 13.096 23.633 -0.002 -0.008 0.002 -1.111
2172 3 3.917 11.251 35.698 0.000 -0.004 -0.007 -1.116
2180 3 3.023 13.156 32.120 -0.006 0.008 -0.021 -1.068
2181 3 2.388 10.949 19.611 0.000 0.000 0.000 -1.060
2182 3 5.581 12.872 19.891 0.000 0.000 0.000 -1.157
2183 3 1.993 11.607 29.411 -0.006 0.013 -0.004 -1.250
2184 3 6.472 14.874 28.794 -0.000 0.003 0.009 -1.200
2185 3 1.382 13.483 40.348 -0.008 -0.002 0.007 -0.860
2186 3 5.384 13.836 39.751 -0.008 -0.010 0.010 -1.153
2190 2 3.296 13.327 26.467 0.004 -0.003 -0.002 1.742
2192 1 3.289 13.247 35.738 -0.001 -0.005 0.003 2.242
2195 1 2.311 11.063 23.360 0.004 -0.000 -0.001 2.241
2196 1 5.225 12.937 23.206 -0.002 -0.006 0.004 2.140
2197 1 1.991 11.271 32.758 -0.002 -0.003 0.002 2.065
2198 1 5.274 13.146 32.367 -0.000 -0.002 -0.001 2.176
2199 1 1.866 11.132 41.444 -0.002 0.002 0.001 2.089
2200 1 5.319 13.196 41.669 0.000 -0.001 0.002 2.289
2203 1 1.045 12.961 19.923 0.000 0.000 0.000 2.104
2204 1 4.396 11.329 20.041 0.000 0.000 0.000 2.102
2205 1 0.871 13.377 29.595 -0.004 -0.001 -0.002 2.007
2206 1 4.126 11.341 29.565 -0.002 0.002 -0.002 2.268
2207 1 0.841 13.136 38.418 -0.006 0.002 0.000 2.459
2208 1 4.345 11.152 38.587 0.001 -0.003 0.002 2.236
2211 3 6.518 7.309 19.536 0.000 0.000 0.000 -1.074
2212 3 9.572 9.336 18.992 0.000 0.000 0.000 -1.109
2213 3 6.008 6.792 28.118 0.005 0.001 0.006 -1.158
2214 3 9.408 9.826 29.018 -0.022 0.004 0.004 -1.017
2215 3 7.224 7.472 37.853 -0.009 0.007 -0.014 -1.299
2216 3 9.542 9.559 37.674 -0.012 -0.002 -0.005 -1.215
2219 3 7.317 9.131 22.407 0.006 0.010 0.009 -1.037
2220 3 10.711 7.746 23.031 0.009 -0.006 0.004 -1.283
2221 3 7.825 9.788 31.865 0.003 -0.003 -0.009 -1.179
2222 3 10.276 7.040 31.384 -0.007 -0.023 0.007 -1.112
2223 3 7.112 9.769 40.426 -0.013 -0.006 0.011 -1.218
2224 3 10.391 7.959 41.790 -0.011 -0.013 -0.008 -0.932
2227 3 8.524 8.448 25.140 0.012 -0.009 -0.010 -1.110
2228 3 12.299 9.570 25.283 -0.011 0.012 0.002 -1.246
2229 3 8.194 7.590 34.774 0.017 -0.002 0.010 -1.198
2230 3 11.322 9.905 35.435 -0.005 0.004 -0.005 -1.069
2233 3 6.446 7.427 23.866 0.003 0.009 -0.018 -1.217
2234 3 10.063 10.126 23.705 0.001 0.002 -0.010 -1.050
2235 3 7.312 8.940 27.845 0.000 -0.004 0.006 -1.004
2236 3 10.810 8.061 26.556 0.001 0.007 0.013 -1.076
2237 3 7.378 9.542 36.260 -0.008 0.006 -0.013 -1.246
2238 3 10.475 6.914 36.443 0.014 -0.003 0.001 -1.063
2240 3 8.741 9.208 42.648 -0.006 0.011 -0.013 -1.012
2245 3 7.549 5.953 32.924 0.006 0.004 0.001 -1.163
2246 3 9.966 9.023 33.587 0.008 0.016 0.012 -1.082
2247 3 8.949 7.610 20.784 0.000 0.000 0.000 -1.186
2248 3 12.070 8.837 20.735 0.000 0.000 0.000 -1.078
2249 3 7.726 7.398 30.641 0.010 0.008 -0.006 -0.990
2250 3 8.950 8.178 39.627 0.000 -0.006 0.005 -1.198
2251 3 11.880 9.278 38.674 0.011 -0.012 -0.006 -1.128
2254 1 6.677 7.630 26.388 0.005 -0.002 0.002 2.191
2255 1 10.148 9.708 25.605 0.002 -0.002 0.005 2.316
2256 1 6.288 7.718 35.890 -0.002 0.007 -0.006 2.320
2257 1 9.297 9.565 35.475 0.008 -0.002 0.002 2.198
2260 1 8.651 7.518 23.166 0.002 0.000 -0.004 2.239
2261 1 11.798 9.418 22.639 -0.001 -0.004 -0.003 2.448
2262 1 8.737 7.649 32.516 0.000 0.003 0.002 2.109
2263 2 11.977 10.024 32.396 -0.003 -0.004 0.003 1.673
2264 1 8.349 7.573 41.452 -0.001 -0.003 -0.002 2.289
2265 1 11.814 9.512 41.894 -0.001 -0.001 -0.001 2.127
2268 1 7.585 9.207 19.958 0.000 0.000 0.000 2.049
2269 1 10.717 7.534 19.765 0.000 0.000 0.000 2.116
2270 1 7.646 9.609 29.863 -0.004 0.003 -0.002 2.207
2271 2 10.702 7.659 28.903 0.001 -0.002 -0.000 1.689
2272 1 7.586 9.262 38.562 -0.003 -0.003 -0.001 2.424
2273 1 10.772 7.700 38.380 -0.002 0.000 0.001 2.181
2276 3 7.643 11.249 20.014 0.000 0.000 0.000 -0.967
2277 3 11.348 13.113 19.059 0.000 0.000 0.000 -1.020
2278 3 6.459 11.443 29.307 -0.001 -0.004 0.004 -1.052
2279 3 9.496 13.034 28.206 -0.007 -0.001 0.005 -1.095
2280 3 5.767 11.736 37.314 0.005 -0.011 0.002 -1.148
2281 3 8.173 15.089 39.496 -0.006 0.000 -0.006 -1.137
2284 3 8.067 13.692 21.776 -0.007 0.008 -0.012 -1.193
2285 3 10.686 10.503 21.366 0.000 0.000 0.000 -1.044
2286 3 6.439 11.721 33.422 0.004 -0.003 0.011 -1.083
2287 3 9.043 11.774 30.300 -0.005 0.008 -0.005 -1.157
2288 3 7.365 13.017 40.854 0.003 0.007 -0.005 -1.087
2289 3 10.619 10.778 40.836 -0.009 -0.009 0.005 -1.173
2292 3 8.930 11.454 25.869 0.011 0.008 0.010 -0.992
2293 3 11.513 12.228 25.301 0.005 -0.001 0.000 -0.953
2294 3 8.427 11.508 34.871 -0.005 -0.003 -0.012 -1.165
2295 3 11.003 13.931 34.615 -0.001 -0.004 0.007 -1.085
2298 3 6.175 11.086 23.155 -0.011 0.004 -0.009 -1.010
2299 3 10.048 13.401 23.975 0.010 -0.001 -0.014 -1.018
2300 3 7.343 13.368 27.195 -0.014 -0.010 0.005 -1.054
2301 3 10.969 10.653 27.335 -0.005 -0.003 0.002 -1.062
2302 3 7.018 13.077 35.878 0.006 -0.010 -0.003 -1.065
2303 3 10.736 12.058 36.234 -0.017 -0.017 0.006 -1.068
2304 3 6.131 11.339 42.780 -0.007 -0.008 -0.001 -1.093
2305 3 9.170 13.504 42.294 0.005 -0.009 0.006 -1.062
2310 3 10.565 11.993 32.523 0.007 -0.003 -0.006 -1.095
2311 3 8.887 11.933 18.888 0.000 0.000 0.000 -0.843
2312 3 11.404 13.368 21.411 0.000 0.000 0.000 -1.064
2313 3 6.880 12.796 31.207 0.003 -0.002 0.002 -1.166
2314 3 13.997 13.591 31.631 0.007 -0.011 -0.002 -1.353
2315 3 8.320 11.314 38.883 0.009 0.009 0.006 -1.084
2316 3 10.943 13.169 39.070 0.004 -0.000 -0.004 -1.018
2318 2 6.750 11.100 26.938 0.001 -0.006 0.002 1.730
2319 1 9.890 13.351 26.018 0.004 0.004 0.002 2.336
2320 1 6.302 11.275 35.385 0.005 -0.004 -0.004 2.388
2321 1 9.249 13.400 35.241 -0.002 -0.001 0.001 2.374
2324 2 8.564 11.292 22.398 0.003 -0.002 0.003 1.687
2325 1 12.098 13.196 23.274 0.001 -0.004 -0.002 2.239
2326 1 8.513 11.824 32.296 -0.003 0.005 0.001 2.287
2327 1 11.898 13.410 32.564 -0.000 -0.006 -0.001 2.119
2328 1 8.527 11.272 41.622 -0.001 0.003 -0.003 2.116
2329 2 11.720 13.542 41.422 0.002 0.003 0.001 1.666
2332 1 7.668 13.405 19.823 0.000 0.000 0.000 2.172
2333 1 10.750 11.063 19.356 0.000 0.000 0.000 2.090
2334 1 7.679 13.346 29.307 -0.007 0.005 0.004 2.349
2335 1 10.779 11.576 29.020 0.005 -0.001 0.001 2.315
2336 1 7.104 13.185 38.520 -0.001 -0.004 0.000 2.206
2337 1 10.524 11.206 38.547 0.004 0.002 0.001 2.141
2340 3 12.823 7.387 18.914 0.000 0.000 0.000 -1.101
2341 3 16.304 9.456 19.283 0.000 0.000 0.000 -1.101
2342 3 14.010 6.072 27.097 0.004 -0.000 0.006 -1.112
2343 3 15.886 10.284 28.483 0.003 -0.004 -0.013 -1.006
2344 3 11.362 3.801 36.325 -0.005 0.010 0.001 -1.187
2345 3 15.675 9.921 37.829 0.015 -0.011 -0.007 -1.117
2348 3 13.724 9.174 22.637 0.008 -0.002 -0.000 -1.109
2349 3 17.467 6.711 21.659 -0.007 0.001 0.004 -0.926
2350 3 13.819 9.077 31.274 0.003 -0.012 -0.007 -1.064
2351 3 16.996 7.352 31.739 0.016 0.002 -0.007 -1.146
2352 3 13.927 9.331 41.159 -0.008 0.001 0.002 -1.442
2353 3 16.888 8.112 40.920 -0.003 -0.004 -0.014 -1.245
2356 3 15.065 7.955 25.862 0.001 0.009 0.012 -1.075
2357 3 16.802 9.927 24.340 0.006 0.007 0.004 -1.086
2358 3 15.689 7.909 34.579 -0.008 0.006 0.001 -1.091
2359 3 18.307 9.393 34.607 0.005 -0.010 -0.005 -1.051
2362 3 13.225 7.089 24.001 -0.003 0.004 0.011 -1.084
2363 3 16.956 8.316 22.527 0.003 0.002 -0.002 -0.987
2364 3 13.634 9.290 27.523 0.006 0.001 0.014 -1.182
2365 3 19.029 7.504 28.774 0.009 0.005 -0.005 -1.262
2366 3 13.929 9.811 35.996 -0.008 0.014 0.007 -0.918
2367 3 17.709 8.303 36.671 0.010 0.005 -0.003 -0.991
2368 3 12.345 7.715 42.802 0.011 0.002 -0.003 -1.218
2369 3 16.002 9.650 42.668 0.008 -0.012 -0.003 -1.288
2374 3 13.160 7.227 33.323 -0.010 0.005 0.003 -1.161
2375 3 15.898 9.916 33.236 -0.000 -0.003 -0.002 -1.215
2376 3 14.852 7.894 20.624 0.000 0.000 0.000 -1.112
2377 3 18.307 9.701 20.947 0.000 0.000 0.000 -0.961
2378 3 16.450 5.879 29.295 -0.005 0.007 -0.004 -1.153
2379 3 17.472 9.647 30.126 -0.004 0.008 -0.007 -1.177
2380 3 15.057 7.853 39.557 0.000 0.007 -0.006 -1.187
2381 3 18.162 9.715 39.327 0.002 -0.009 0.004 -1.260
2384 1 12.863 7.754 25.982 -0.002 -0.001 0.003 2.196
2385 1 16.228 9.607 26.275 0.005 -0.005 -0.002 2.300
2386 2 12.646 7.763 35.553 -0.004 -0.002 0.008 1.701
2387 1 16.130 9.751 35.520 0.005 0.003 -0.002 2.132
2390 1 14.963 7.596 22.623 -0.002 -0.005 -0.003 2.299
2391 1 18.394 9.507 23.164 -0.001 -0.001 -0.003 2.448
2392 1 14.956 7.801 32.628 0.004 0.001 0.004 2.176
2393 1 17.836 9.529 32.489 -0.002 -0.005 -0.004 2.105
2394 1 15.031 7.776 41.662 -0.005 -0.003 -0.001 2.320
2395 1 18.112 9.408 41.702 -0.005 -0.001 -0.003 2.314
2398 1 14.056 9.230 19.403 0.000 0.000 0.000 2.080
2399 1 17.262 7.698 19.899 0.000 0.000 0.000 2.208
2400 1 14.024 9.680 29.363 -0.004 0.000 -0.003 2.451
2401 1 17.112 7.923 29.407 -0.002 0.002 -0.001 2.367
2402 1 14.052 9.507 38.927 -0.001 -0.002 -0.001 2.231
2403 1 17.280 7.683 38.645 0.001 0.000 0.003 2.283
2406 3 12.752 10.831 18.766 0.000 0.000 0.000 -1.086
2407 3 16.058 13.344 19.325 0.000 0.000 0.000 -1.055
2408 3 12.269 10.213 29.945 -0.007 0.009 -0.002 -1.052
2409 3 15.774 13.265 28.812 0.002 -0.003 0.011 -1.346
2410 3 12.801 11.327 37.849 0.008 -0.008 -0.004 -1.163
2411 3 14.560 11.504 39.497 0.004 -0.010 0.012 -1.201
2414 3 14.209 13.603 22.903 0.008 0.005 -0.010 -1.149
2415 3 17.461 11.545 22.298 0.004 -0.008 0.003 -1.070
2416 3 14.679 11.491 30.584 -0.000 0.004 -0.002 -1.072
2417 3 17.260 11.570 31.618 -0.014 -0.001 -0.014 -1.261
2418 3 13.722 14.336 40.168 -0.001 -0.014 -0.014 -1.156
2422 3 15.105 11.268 25.793 0.000 0.003 -0.008 -1.325
2423 3 18.119 12.864 25.043 0.012 0.004 0.014 -1.075
2424 3 14.862 11.733 34.736 0.002 0.017 -0.010 -1.066
2425 3 19.173 12.967 34.285 -0.013 -0.002 0.003 -1.234
2428 3 12.591 11.199 23.347 0.000 -0.016 -0.003 -1.001
2429 3 15.571 14.938 25.442 0.012 0.005 0.003 -1.253
2430 3 13.377 15.093 28.739 -0.002 0.004 -0.012 -1.148
2431 3 17.487 11.835 27.358 -0.001 0.000 0.003 -1.123
2432 3 13.735 13.323 36.348 0.010 -0.010 -0.007 -1.261
2433 3 17.388 11.801 35.284 0.004 0.013 -0.002 -1.140
2434 3 13.118 11.434 42.612 -0.006 0.013 0.001 -1.089
2435 3 15.502 12.834 42.493 0.008 -0.005 0.001 -0.999
2440 3 12.841 11.844 33.652 0.015 -0.014 0.010 -1.077
2441 3 16.322 13.831 33.339 -0.001 0.017 0.001 -1.264
2442 3 14.975 11.137 19.932 0.000 0.000 0.000 -0.977
2443 3 18.140 13.485 20.932 0.000 0.000 0.000 -1.180
2444 3 13.070 11.684 28.435 0.013 -0.000 -0.007 -1.028
2445 3 17.996 13.650 30.226 -0.012 -0.003 0.000 -1.091
2446 3 16.581 11.419 40.622 -0.004 0.007 0.007 -1.163
2447 3 18.437 13.237 39.366 -0.007 0.002 0.005 -1.325
2450 1 13.180 11.076 26.281 -0.008 -0.000 -0.000 2.290
2451 1 15.912 13.155 26.658 0.003 -0.003 -0.001 2.053
2452 1 12.551 11.465 35.825 0.006 -0.003 -0.001 2.315
2453 1 16.006 13.366 35.439 0.001 0.002 0.001 2.425
2456 2 15.039 11.290 23.221 -0.000 0.002 0.006 1.654
2457 1 18.528 13.238 22.979 0.001 -0.001 0.002 2.185
2458 1 15.315 11.922 32.665 -0.002 0.001 -0.002 2.024
2459 1 18.331 13.295 32.412 -0.000 -0.001 0.003 2.199
2460 1 15.009 11.019 41.652 -0.001 0.005 0.001 2.361
2461 1 18.219 13.395 41.586 -0.004 0.004 -0.003 2.216
2464 2 13.797 12.979 18.821 0.000 0.000 0.000 1.653
2465 1 17.035 11.422 20.031 0.000 0.000 0.000 2.095
2466 1 13.978 13.276 29.736 -0.002 0.001 0.003 2.356
2467 1 17.257 11.678 29.463 0.000 0.004 -0.004 2.263
2468 1 13.808 13.079 38.458 -0.002 -0.006 -0.001 2.282
2469 1 17.121 11.387 38.712 0.005 -0.002 -0.004 2.232
2472 3 19.397 7.899 19.465 0.000 0.000 0.000 -1.051
2473 3 22.611 9.435 19.762 0.000 0.000 0.000 -1.051
2474 3 22.218 6.118 28.956 -0.003 0.013 -0.005 -1.203
2475 3 20.669 9.132 27.352 0.004 0.002 0.007 -1.118
2476 3 17.891 5.884 39.428 0.017 0.001 -0.009 -1.226
2477 3 22.635 9.360 37.789 -0.001 -0.001 0.003 -1.123
2480 3 20.240 10.242 22.070 0.001 -0.007 0.010 -1.135
2481 3 23.793 7.744 22.249 -0.004 -0.022 -0.007 -1.206
2482 3 22.437 9.134 32.209 -0.008 -0.001 -0.020 -1.029
2483 3 23.905 10.002 34.230 -0.006 0.003 -0.007 -1.168
2484 3 20.091 9.706 41.117 -0.014 0.013 0.006 -1.170
2485 3 23.088 11.238 40.862 -0.002 -0.016 -0.002 -1.100
2488 3 21.280 7.858 25.404 0.009 -0.011 -0.002 -1.184
2490 3 21.104 7.849 34.672 0.013 -0.008 -0.004 -1.351
2494 3 19.476 7.885 23.516 -0.009 -0.012 -0.004 -1.176
2495 3 22.479 9.620 23.423 -0.004 0.011 -0.018 -1.258
2496 3 18.419 9.574 26.501 0.004 -0.002 -0.003 -1.050
2497 3 23.332 7.603 27.020 0.000 0.002 -0.001 -1.133
2498 3 19.398 7.608 37.833 -0.005 0.008 0.009 -1.168
2499 3 23.603 7.838 35.651 -0.007 0.010 0.012 -1.086
2506 3 18.997 7.455 32.964 0.002 0.001 -0.018 -1.099
2507 3 20.343 9.911 36.358 0.005 -0.005 -0.004 -1.134
2508 3 21.180 7.624 21.207 0.000 0.000 0.000 -1.063
2509 3 24.830 9.960 21.066 0.000 0.000 0.000 -1.166
2510 3 20.676 7.646 30.539 -0.002 0.004 0.010 -0.995
2511 3 22.363 9.073 29.258 -0.005 -0.011 -0.017 -1.043
2512 3 21.401 8.001 39.475 0.001 -0.005 0.001 -1.094
2513 3 25.003 9.818 39.265 -0.008 -0.006 0.005 -1.142
2516 1 19.480 7.678 26.589 -0.000 -0.002 0.005 2.246
2517 1 22.479 9.334 26.225 -0.004 0.002 -0.001 2.188
2518 1 19.336 7.514 35.486 -0.000 0.002 -0.009 2.316
2519 1 22.226 9.515 35.342 -0.003 -0.001 0.003 2.330
2522 1 21.653 7.800 23.349 0.003 0.002 -0.005 2.305
2523 1 24.716 9.397 23.100 0.007 -0.002 0.001 2.146
2524 1 21.042 7.472 32.510 -0.001 -0.001 0.006 2.240