ITEM: TIMESTEP
40000
ITEM: NUMBER OF ATOMS
37374
ITEM: BOX BOUNDS pp pp pp
0.000000 102.779942
0.000000 118.660062
0.000000 130.735200
ITEM: ATOMS id type x y z vx vy vz q
2 3 3.194 2.308 19.117 0.000 0.000 0.000 -1.069
4 3 3.034 2.105 28.719 -0.002 0.005 -0.007 -1.008
6 3 2.739 2.484 37.788 -0.005 -0.007 -0.008 -1.184
9 3 1.399 1.810 21.816 -0.011 0.008 0.002 -1.054
11 3 0.973 1.828 31.770 0.015 -0.005 0.008 -1.032
13 3 0.769 1.969 40.702 -0.007 0.004 0.008 -1.093
18 3 5.253 2.430 25.077 -0.001 0.004 -0.006 -1.026
20 3 5.495 1.915 34.804 0.005 0.010 -0.008 -1.134
24 3 3.054 1.984 23.522 -0.000 -0.001 0.015 -0.977
30 3 3.271 2.074 42.682 -0.005 -0.002 0.006 -1.138
36 3 2.615 2.232 33.451 -0.006 0.001 0.005 -1.161
37 3 1.881 0.228 19.742 0.000 0.000 0.000 -1.208
38 3 5.513 1.819 19.848 0.000 0.000 0.000 -1.019
40 3 5.051 1.907 29.998 -0.008 0.005 0.009 -1.146
42 3 4.865 2.103 39.369 -0.004 -0.007 0.013 -1.204
46 2 3.113 1.803 26.120 -0.002 -0.004 -0.001 1.728
48 1 2.830 2.071 35.557 -0.002 -0.004 -0.001 2.284
52 1 5.325 2.160 23.068 0.001 -0.005 -0.003 2.257
54 1 4.838 2.186 32.646 -0.004 0.000 -0.004 2.203
56 1 5.231 2.104 41.666 0.002 0.005 0.002 2.263
59 1 1.108 2.215 19.775 0.000 0.000 0.000 2.208
60 1 4.018 0.309 19.738 0.000 0.000 0.000 2.287
61 1 1.024 1.898 29.344 -0.003 0.002 -0.006 2.279
63 1 0.886 1.739 38.715 -0.001 -0.005 -0.003 2.202
67 3 0.086 4.021 19.084 0.000 0.000 0.000 -1.086
68 3 3.421 5.669 19.058 0.000 0.000 0.000 -1.076
70 3 3.189 5.606 28.514 -0.006 0.006 -0.010 -1.177
72 3 2.982 6.447 37.355 0.009 0.001 0.006 -0.981
76 3 4.349 3.777 21.941 0.004 -0.004 -0.005 -1.032
77 3 0.588 5.543 31.919 -0.003 0.011 -0.006 -1.189
78 3 3.701 3.722 31.867 0.000 0.002 0.001 -1.132
79 3 0.485 5.438 40.306 -0.006 -0.001 0.012 -0.955
80 3 4.703 4.059 40.537 -0.004 0.008 0.008 -1.068
83 3 1.674 4.782 26.080 0.016 0.002 0.011 -0.804
84 3 4.724 5.015 24.935 -0.005 0.009 0.005 -1.111
85 3 1.753 4.145 34.861 0.003 -0.002 0.007 -1.104
86 3 4.172 8.028 35.719 0.018 -0.011 0.007 -0.982
89 3 1.838 3.662 24.959 0.011 0.002 0.018 -0.767
90 3 3.145 5.844 23.301 -0.005 0.003 -0.004 -1.054
92 3 4.646 4.142 27.554 -0.000 0.004 0.012 -1.144
94 3 3.934 3.937 35.864 0.015 -0.004 0.010 -1.150
96 3 3.236 6.151 42.081 -0.002 -0.001 0.011 -1.098
102 3 3.260 5.999 33.286 -0.000 0.010 0.005 -1.179
103 3 1.960 4.014 20.727 0.000 0.000 0.000 -1.075
104 3 5.058 5.763 20.991 0.000 0.000 0.000 -1.106
105 3 1.876 3.863 30.224 0.005 0.002 0.014 -1.074
106 3 5.540 4.893 30.276 -0.002 -0.000 -0.006 -1.288
107 3 2.718 4.984 38.436 0.002 0.003 -0.000 -0.931
108 3 5.444 5.350 38.302 -0.001 -0.004 0.008 -1.015
112 1 3.370 5.806 26.354 -0.001 0.005 0.001 2.170
114 1 3.234 5.833 35.410 0.000 -0.002 0.001 2.337
117 1 2.248 4.049 22.803 -0.003 -0.001 0.007 2.253
118 1 5.518 6.018 23.068 -0.002 -0.000 -0.001 2.241
119 1 1.608 3.808 32.548 -0.004 0.004 -0.001 2.291
120 1 5.020 5.793 32.223 -0.005 0.004 -0.002 2.057
121 2 1.930 4.211 41.945 0.002 0.003 -0.003 1.631
122 1 5.300 5.677 41.857 0.003 0.003 0.004 2.169
125 1 1.243 5.880 19.517 0.000 0.000 0.000 2.110
126 1 4.463 3.941 19.823 0.000 0.000 0.000 2.156
127 1 1.118 5.715 29.338 -0.001 0.003 0.003 2.153
128 1 4.086 3.798 29.522 0.002 -0.002 0.004 2.269
129 1 0.910 5.964 38.395 0.002 -0.008 -0.000 2.297
130 1 4.253 3.610 38.441 -0.003 -0.001 0.005 2.402
134 3 9.828 2.071 19.444 0.000 0.000 0.000 -1.097
138 3 7.949 4.676 34.792 0.006 -0.001 -0.002 -1.036
141 3 7.263 1.506 22.098 -0.020 -0.008 -0.006 -1.102
143 3 7.784 3.027 30.784 -0.006 0.004 -0.005 -0.893
144 3 12.872 2.341 30.421 0.002 0.008 0.010 -0.946
145 3 7.205 2.572 40.625 -0.004 0.002 -0.011 -1.107
150 3 12.163 2.170 25.079 0.001 0.000 0.015 -1.031
152 3 11.877 2.020 35.329 -0.003 0.001 0.006 -1.143
156 3 9.488 2.493 23.378 0.006 0.010 0.005 -1.188
157 3 9.577 1.854 28.712 -0.000 -0.005 -0.003 -1.097
159 3 7.938 1.898 36.529 0.008 -0.000 -0.008 -1.084
162 3 9.213 2.071 41.961 -0.001 -0.006 0.009 -1.082
168 3 8.902 2.537 33.763 -0.001 0.004 -0.008 -1.091
169 3 8.337 0.112 19.404 0.000 0.000 0.000 -1.150
170 3 11.991 2.067 20.912 0.000 0.000 0.000 -1.092
173 3 10.143 1.884 37.825 0.004 -0.007 -0.006 -1.104
177 1 9.193 2.080 26.481 0.000 -0.001 -0.005 2.151
179 1 9.726 2.044 35.702 0.001 -0.009 -0.001 2.322
183 1 11.336 1.914 22.925 -0.001 0.005 -0.002 2.194
185 1 12.030 2.221 32.370 0.005 -0.004 0.003 2.185
187 2 11.729 2.272 41.769 -0.000 0.003 0.003 1.687
190 1 7.618 2.008 20.016 0.000 0.000 0.000 2.159
192 1 7.064 1.978 29.109 -0.002 0.002 -0.005 2.153
194 1 7.387 2.294 38.702 0.005 -0.004 -0.004 2.210
198 3 6.608 4.036 19.356 0.000 0.000 0.000 -1.078
199 3 9.667 5.592 19.337 0.000 0.000 0.000 -1.139
200 3 7.091 1.322 27.205 -0.008 -0.005 0.001 -1.109
201 3 9.191 5.754 28.069 0.000 0.003 0.000 -1.107
202 3 5.996 3.171 37.171 -0.001 -0.001 0.004 -1.135
203 3 10.161 6.077 37.715 0.001 0.009 0.006 -1.180
206 3 7.792 5.872 22.188 -0.001 0.013 0.002 -1.266
207 3 10.974 4.054 22.347 0.002 -0.002 0.004 -1.137
208 3 8.705 4.638 30.641 -0.007 0.011 -0.001 -0.923
209 3 10.422 3.539 31.897 -0.004 -0.011 -0.006 -0.990
210 3 8.286 5.355 40.599 0.004 0.004 -0.010 -1.036
211 3 11.294 4.198 40.378 0.013 0.007 -0.000 -1.092
214 3 8.133 3.666 25.418 -0.001 0.003 0.013 -1.154
215 3 11.565 6.002 25.616 -0.003 -0.001 0.008 -1.176
216 3 5.315 6.120 34.976 -0.012 -0.001 0.009 -1.148
217 3 12.508 4.293 33.308 -0.011 0.014 0.000 -1.234
220 3 6.461 3.950 23.389 0.014 0.004 0.006 -1.049
221 3 9.602 5.977 23.953 0.013 -0.002 -0.001 -1.273
222 3 7.260 6.074 25.745 -0.010 -0.012 0.012 -1.167
223 3 10.391 3.836 26.450 -0.007 -0.005 0.004 -1.161
224 3 7.915 6.459 37.062 -0.001 -0.005 -0.000 -1.189
225 3 12.552 4.018 37.735 -0.004 0.002 -0.006 -1.095
227 3 9.829 5.711 42.321 -0.010 -0.009 -0.000 -1.085
231 3 6.114 3.575 33.175 0.001 0.001 0.012 -1.154
232 3 10.054 5.882 33.523 0.004 -0.008 -0.007 -1.184
233 3 8.427 3.647 20.952 0.000 0.000 0.000 -1.117
234 3 11.762 5.978 20.872 0.000 0.000 0.000 -1.090
235 3 7.209 3.924 28.016 0.003 0.008 0.014 -1.200
236 3 12.325 5.529 30.583 -0.004 -0.002 0.009 -1.097
237 3 8.627 4.077 38.576 -0.004 0.005 0.026 -1.198
238 3 12.308 8.544 38.231 0.007 0.004 -0.009 -0.964
241 1 6.114 4.057 26.137 0.006 -0.006 0.001 2.195
242 1 9.342 5.752 26.067 -0.005 -0.004 -0.005 2.218
243 1 6.121 3.884 35.380 -0.001 0.000 0.001 2.206
244 1 9.433 6.015 35.787 -0.006 0.002 0.001 2.245
247 1 8.568 4.318 23.348 0.005 0.002 0.002 2.239
248 1 11.696 5.851 23.054 -0.001 -0.001 0.008 2.309
249 1 8.412 4.105 32.569 0.005 -0.001 -0.001 2.353
250 1 11.771 6.027 32.508 0.001 0.004 0.001 2.113
251 1 8.347 3.861 42.143 0.002 0.003 -0.002 2.286
252 1 11.727 5.846 41.502 0.004 -0.004 0.001 2.258
255 1 7.677 5.633 20.123 0.000 0.000 0.000 2.166
256 1 10.605 3.818 20.133 0.000 0.000 0.000 2.163
257 1 7.304 5.486 29.306 0.003 0.005 0.006 2.296
258 2 10.764 3.909 29.574 0.006 -0.002 -0.000 1.727
259 1 7.431 5.839 38.861 -0.002 0.001 -0.003 2.345
260 1 10.582 4.175 38.326 0.002 0.006 0.004 2.273
263 3 12.537 0.171 19.265 0.000 0.000 0.000 -0.996
264 3 17.790 2.402 19.135 0.000 0.000 0.000 -1.143
266 3 16.010 2.102 28.167 0.002 -0.008 -0.001 -1.180
270 3 14.747 1.735 21.849 -0.013 -0.013 -0.002 -1.010
272 3 13.960 2.195 32.018 -0.000 0.003 -0.008 -1.165
274 3 14.108 2.157 41.773 -0.002 -0.002 0.003 -0.976
279 3 18.605 1.937 25.254 0.004 0.008 0.015 -1.078
281 3 18.160 2.509 34.405 0.008 0.010 0.001 -1.283
285 3 16.396 1.940 23.991 -0.004 0.002 -0.010 -1.031
286 3 14.032 2.545 26.855 0.006 -0.012 -0.013 -1.134
288 3 14.144 1.630 35.667 0.001 0.008 0.011 -1.081
291 3 15.900 2.877 42.883 -0.004 -0.010 0.010 -1.177
297 3 16.097 1.614 33.385 -0.019 -0.009 0.003 -1.362
298 3 15.041 0.456 19.380 0.000 0.000 0.000 -1.162
299 3 17.771 1.182 21.423 0.000 0.000 0.000 -0.873
301 3 17.383 2.444 30.073 -0.009 -0.008 -0.000 -1.115
303 3 17.833 2.179 38.460 0.010 0.006 0.007 -1.125
307 1 15.897 2.371 26.089 0.000 0.003 0.006 2.341
309 1 16.169 2.240 35.072 0.000 0.000 -0.001 2.323
313 1 18.373 2.233 23.076 -0.002 -0.004 -0.002 2.287
315 1 18.184 2.328 32.296 0.002 -0.004 -0.006 2.246
317 1 18.074 2.150 42.142 -0.002 0.001 -0.003 2.324
320 1 13.752 1.988 19.922 0.000 0.000 0.000 2.164
321 1 17.064 0.459 19.618 0.000 0.000 0.000 2.200
322 1 14.165 2.414 28.946 -0.000 -0.004 -0.003 2.320
324 2 13.968 1.966 38.047 -0.005 -0.002 -0.004 1.647
328 3 12.549 3.936 19.387 0.000 0.000 0.000 -1.067
329 3 15.921 6.204 19.412 0.000 0.000 0.000 -1.075
330 3 12.859 4.091 28.291 0.006 0.006 -0.001 -1.104
331 3 16.756 7.677 27.270 0.011 -0.012 -0.014 -1.067
332 3 12.005 6.155 39.085 0.005 -0.008 0.005 -1.034
333 3 15.736 5.905 37.696 -0.012 0.004 0.012 -1.134
336 3 14.457 5.638 21.715 0.003 -0.002 -0.008 -1.046
337 3 17.751 4.040 21.871 -0.003 -0.006 -0.011 -1.222
338 3 14.723 7.809 29.584 -0.014 -0.000 -0.009 -1.107
339 3 16.969 4.129 32.671 0.008 0.000 0.014 -1.120
340 3 13.635 5.235 41.077 -0.006 0.004 -0.017 -1.241
341 3 17.130 3.566 40.990 -0.005 -0.006 -0.003 -1.150
344 3 18.122 5.689 25.344 -0.001 -0.004 -0.000 -1.127
345 3 14.883 3.946 34.463 -0.002 -0.007 -0.017 -1.298
346 3 18.112 5.703 34.989 0.018 0.004 -0.002 -1.147
349 3 12.790 4.548 24.019 -0.003 0.003 -0.006 -1.086
350 3 15.876 6.323 24.049 0.025 0.008 0.000 -1.105
351 3 15.308 4.245 25.528 -0.001 0.001 -0.007 -1.062
352 3 17.354 3.957 27.090 -0.008 -0.001 -0.002 -1.183
353 3 13.744 5.715 36.598 0.012 0.004 0.008 -1.041
354 3 16.535 3.787 36.480 0.021 -0.006 -0.014 -1.110
356 3 16.117 5.799 42.336 -0.004 -0.002 -0.003 -1.084
361 3 14.497 5.975 32.064 0.009 0.003 0.002 -1.309
362 3 16.749 7.058 33.639 -0.010 0.008 -0.002 -1.071
363 3 15.037 3.722 19.639 0.000 0.000 0.000 -1.142
364 3 18.493 5.606 19.488 0.000 0.000 0.000 -1.158
365 3 15.014 4.033 29.987 -0.007 0.004 0.005 -1.235
366 3 18.041 5.429 30.516 0.001 0.005 -0.001 -1.180
367 3 15.101 3.832 39.331 -0.002 -0.014 -0.012 -1.206
368 3 17.971 5.664 39.637 0.004 0.001 0.008 -1.177
371 1 12.462 4.028 26.013 0.003 0.003 -0.006 2.179
372 1 15.929 6.166 25.983 0.002 0.005 -0.003 2.302
373 1 12.953 3.747 35.429 0.004 0.003 -0.001 1.969
374 1 15.845 5.810 35.466 -0.002 -0.005 -0.003 2.053
377 2 14.976 3.734 23.107 -0.005 0.003 -0.001 1.653
378 1 18.421 5.716 23.123 0.003 -0.002 -0.010 2.189
379 1 14.889 4.222 32.339 -0.003 -0.001 -0.000 2.172
380 1 18.158 5.979 32.568 -0.000 -0.001 -0.002 2.141
381 1 15.153 4.018 41.568 -0.001 -0.003 0.001 2.284
382 1 18.260 5.612 41.696 0.001 0.004 0.007 2.232
385 1 13.797 5.702 19.676 0.000 0.000 0.000 2.137
386 1 17.074 4.184 19.822 0.000 0.000 0.000 2.058
387 1 14.044 5.695 29.328 -0.001 -0.000 -0.003 2.110
388 1 17.299 4.167 29.083 -0.001 -0.004 0.001 2.350
389 1 13.949 5.606 38.853 0.002 0.004 0.002 2.271
390 1 17.047 4.110 38.547 0.003 0.001 0.000 2.190
394 3 22.553 2.319 19.102 0.000 0.000 0.000 -0.978
396 3 22.336 1.870 29.056 0.005 -0.005 -0.000 -1.105
398 3 22.114 2.994 37.777 0.003 0.008 -0.003 -1.192
401 3 20.693 2.172 22.533 0.007 0.002 0.003 -1.120
403 3 20.016 2.004 31.253 -0.006 0.002 0.006 -1.119
405 3 19.923 2.437 41.362 0.008 -0.003 -0.001 -1.119
412 3 24.071 2.208 34.537 0.001 -0.005 0.003 -1.071
416 3 22.418 2.106 24.081 -0.002 0.013 -0.003 -1.001
417 3 20.779 2.681 27.023 0.002 0.002 -0.002 -0.935
419 3 20.277 2.008 36.114 -0.006 0.004 -0.013 -1.213
422 3 22.770 3.256 41.179 -0.005 0.006 -0.003 -0.989
428 3 22.112 2.216 32.789 0.001 -0.003 0.008 -1.113
429 3 21.127 0.328 20.740 0.000 0.000 0.000 -1.017
430 3 23.448 2.368 21.615 0.002 -0.006 0.008 -1.175
432 3 24.670 2.231 29.646 -0.006 -0.002 0.012 -1.126
438 1 22.798 2.058 26.112 -0.002 -0.002 0.004 2.324
440 1 22.303 2.116 35.794 0.004 0.002 -0.001 2.166
443 1 21.336 0.413 22.841 0.002 0.001 -0.000 2.354
444 1 24.822 2.145 22.948 0.003 -0.000 -0.004 2.211
446 1 24.531 2.268 32.419 0.000 0.001 -0.001 2.128
448 1 24.360 2.178 41.851 -0.000 -0.000 0.005 2.217
451 2 20.178 2.057 19.185 0.000 0.000 0.000 1.654
452 1 23.654 0.697 20.057 0.000 0.000 0.000 2.062
453 1 20.430 2.187 29.282 0.001 -0.001 0.001 2.241
455 1 20.112 2.647 38.503 0.003 -0.003 -0.000 2.071
459 3 22.396 6.231 19.569 0.000 0.000 0.000 -1.039
460 3 19.232 3.749 28.884 -0.017 -0.006 -0.002 -1.248
461 3 23.053 5.880 28.526 -0.002 0.002 0.011 -1.094
462 3 19.021 4.310 37.456 -0.000 -0.003 -0.009 -1.175
463 3 22.705 5.700 37.816 0.003 -0.001 0.005 -1.187
466 3 20.323 5.714 22.396 -0.012 0.001 -0.005 -1.197
467 3 23.083 4.984 21.904 -0.001 -0.008 -0.013 -1.107
468 3 20.320 6.569 31.435 0.010 -0.007 -0.001 -1.105
469 3 23.749 3.941 31.547 0.007 0.013 0.001 -1.101
470 3 20.291 6.088 41.538 -0.001 0.013 0.007 -1.308
471 3 23.085 4.970 40.533 0.002 -0.001 -0.009 -0.879
474 3 21.603 4.019 25.233 -0.014 0.001 0.003 -1.048
475 3 24.621 5.745 25.623 -0.011 0.001 0.005 -1.262
476 3 20.989 4.312 34.748 0.009 -0.003 0.008 -1.291
477 3 24.484 5.891 34.991 0.006 -0.010 0.005 -1.068
480 3 19.063 3.784 24.134 0.005 0.004 -0.002 -1.180
481 3 22.755 6.116 24.326 0.003 0.015 -0.004 -1.122
482 3 20.538 5.262 27.355 0.000 -0.012 -0.004 -1.134
483 3 23.570 3.513 27.263 -0.008 0.001 -0.008 -1.165
484 3 20.367 6.521 36.495 -0.010 0.010 -0.020 -1.082
485 3 23.620 3.940 36.103 0.010 -0.004 -0.003 -1.079
486 3 18.926 3.876 42.867 0.009 0.000 0.006 -1.213
487 3 23.250 6.609 42.624 0.012 0.002 0.014 -1.109
492 3 19.479 4.193 32.821 -0.010 -0.009 0.004 -1.189
493 3 22.584 5.679 32.880 0.008 0.009 -0.001 -1.191
494 3 21.183 4.279 19.663 0.000 0.000 0.000 -1.034
495 3 24.817 5.508 20.070 0.000 0.000 0.000 -1.088
496 3 21.571 4.317 30.398 -0.007 0.006 -0.005 -1.078
497 3 24.695 6.162 30.343 -0.001 -0.008 0.005 -1.027
498 3 20.338 4.196 39.669 -0.004 0.009 0.004 -1.215
499 3 24.944 6.038 39.320 -0.007 -0.008 0.003 -1.200
502 1 19.284 3.837 26.236 -0.004 -0.001 -0.001 2.252
503 1 22.287 5.785 26.322 -0.001 -0.000 -0.001 2.256
504 1 19.205 3.963 35.198 0.005 0.006 -0.007 2.267
505 1 22.411 5.791 35.745 0.003 -0.001 0.003 2.183
508 1 21.532 3.998 23.163 -0.007 0.002 0.001 2.095
509 1 24.480 5.803 23.171 -0.004 0.005 -0.003 2.272
510 1 21.436 4.067 32.600 -0.007 -0.004 0.000 2.313
511 1 24.483 5.822 32.435 0.005 -0.005 0.002 2.327
512 1 21.083 4.053 41.897 0.003 0.001 0.006 2.347
513 1 24.775 5.983 41.645 0.000 -0.009 -0.001 2.208
516 1 20.403 6.034 20.157 0.000 0.000 0.000 2.260
517 1 23.352 3.966 19.998 0.000 0.000 0.000 2.258
518 1 20.091 5.810 29.531 0.001 0.003 -0.000 2.218
519 1 23.427 4.121 29.244 -0.004 -0.003 -0.001 2.261
520 1 20.070 5.858 38.640 0.001 -0.003 -0.006 2.171
521 1 23.586 4.116 38.746 0.005 0.003 -0.002 2.276
524 3 25.592 0.122 19.242 0.000 0.000 0.000 -1.102
589 3 24.997 2.634 19.510 0.000 0.000 0.000 -1.067
2080 3 0.080 7.586 18.848 0.000 0.000 0.000 -1.107
2081 3 2.664 8.225 19.641 0.000 0.000 0.000 -0.947
2083 3 3.762 10.912 27.306 0.005 -0.008 0.005 -1.115
2085 3 2.147 11.077 39.323 -0.007 0.009 -0.007 -1.116
2088 3 1.376 9.439 22.126 -0.004 0.009 0.001 -1.088
2089 3 4.599 7.818 22.141 -0.008 0.019 -0.016 -1.118
2090 3 1.534 9.348 31.294 0.007 -0.021 -0.017 -1.093
2091 3 4.623 7.550 31.291 0.001 -0.018 0.001 -1.123
2092 3 1.259 9.563 40.994 -0.009 -0.006 0.012 -1.150
2093 3 5.754 6.551 40.128 0.005 0.010 -0.003 -1.087
2096 3 1.862 7.246 25.692 -0.006 0.007 0.016 -1.116
2097 3 5.669 9.308 25.277 -0.004 -0.005 -0.000 -1.066
2098 3 1.845 7.440 34.879 0.006 0.008 -0.006 -1.059
2099 3 5.756 9.407 34.970 -0.000 -0.011 -0.000 -1.063
2103 3 2.831 9.427 24.137 0.002 0.010 0.004 -1.177
2105 3 4.554 7.654 26.518 0.015 0.003 -0.007 -1.147
2106 3 1.479 10.017 36.642 -0.005 0.000 -0.006 -1.191
2107 3 3.985 9.302 37.908 0.009 -0.004 -0.014 -1.102
2115 3 2.856 9.103 33.390 -0.007 -0.005 0.006 -1.068
2116 3 1.883 7.109 20.988 0.000 0.000 0.000 -1.002
2117 3 5.332 9.411 19.736 0.000 0.000 0.000 -1.092
2118 3 2.892 8.730 28.265 -0.006 0.003 0.000 -1.146
2119 3 4.924 9.531 29.637 -0.009 -0.003 0.001 -1.095
2120 3 1.830 7.386 39.656 -0.012 0.001 -0.006 -1.118
2121 3 5.870 10.033 39.625 0.001 0.006 0.001 -1.098
2125 1 2.880 9.338 26.279 0.006 0.000 -0.007 2.153
2127 1 3.077 9.568 35.543 -0.001 0.002 -0.004 2.305
2130 1 1.999 7.613 22.999 0.002 -0.001 -0.003 2.149
2131 1 5.486 9.560 23.087 0.007 -0.000 -0.003 2.115
2132 1 1.876 7.496 32.405 -0.000 -0.001 0.000 2.268
2133 2 5.305 9.332 32.755 0.003 0.009 -0.011 1.621
2134 1 2.130 7.818 41.747 0.002 0.002 -0.001 2.426
2135 1 5.261 9.503 41.570 0.005 0.002 -0.000 2.321
2138 1 0.977 9.496 19.852 0.000 0.000 0.000 2.150
2139 1 4.366 7.432 20.081 0.000 0.000 0.000 2.302
2140 1 1.190 9.586 29.057 0.001 -0.005 0.001 2.237
2141 1 4.374 7.491 29.313 0.001 -0.005 0.005 2.194
2142 1 1.185 9.360 38.739 -0.000 0.000 0.002 2.163
2143 1 4.259 7.391 38.814 -0.004 -0.003 0.004 2.212
2146 3 0.022 11.240 19.029 0.000 0.000 0.000 -1.029
2147 3 3.170 13.236 19.491 0.000 0.000 0.000 -1.039
2149 3 3.606 13.351 29.000 0.011 -0.007 -0.011 -1.087
2151 3 3.152 13.120 38.001 -0.003 0.002 -0.004 -1.108
2154 3 1.300 12.189 21.722 0.022 0.006 -0.008 -1.082
2155 3 3.999 10.565 22.123 -0.013 -0.004 0.006 -1.126
2156 3 0.592 12.512 31.696 -0.014 0.003 -0.019 -1.156
2157 3 3.827 11.874 31.476 0.009 -0.002 -0.010 -1.017
2159 3 3.696 8.394 40.705 -0.011 0.007 -0.004 -1.188
2162 3 1.465 11.833 25.072 -0.002 -0.007 0.006 -1.132
2163 3 6.129 13.498 25.161 0.000 0.002 0.002 -1.041
2164 3 3.027 11.241 34.285 0.010 0.004 0.007 -1.149
2165 3 5.342 13.520 35.249 -0.009 -0.008 -0.010 -1.121
2169 3 3.396 13.036 23.551 -0.005 0.007 0.003 -1.234
2172 3 4.377 11.268 36.348 -0.006 0.009 -0.001 -1.225
2180 3 3.100 13.658 33.493 0.008 0.014 -0.005 -1.059
2181 3 2.388 10.949 19.611 0.000 0.000 0.000 -1.017
2182 3 5.581 12.872 19.891 0.000 0.000 0.000 -1.190
2183 3 2.256 11.068 29.611 0.005 -0.001 -0.008 -1.183
2184 3 5.438 13.377 30.442 0.008 -0.004 -0.006 -1.210
2185 3 0.857 12.652 40.861 0.005 -0.020 0.003 -1.146
2186 3 4.796 12.843 39.567 0.005 -0.002 0.003 -1.018
2190 2 2.907 13.249 26.690 -0.002 0.002 -0.000 1.623
2192 1 3.252 13.007 35.497 -0.000 0.003 0.002 2.275
2195 1 2.158 11.243 23.280 -0.001 -0.004 -0.003 2.294
2196 1 5.349 13.239 23.167 -0.001 -0.006 0.001 1.998
2197 1 1.988 11.037 32.503 0.002 -0.005 -0.005 2.219
2198 1 5.058 13.487 32.363 0.003 0.000 -0.002 2.181
2199 1 2.105 11.402 41.807 0.002 -0.000 -0.002 2.339
2200 1 5.431 13.355 41.559 0.002 0.002 0.004 2.278
2203 1 1.045 12.961 19.923 0.000 0.000 0.000 2.160
2204 1 4.396 11.329 20.041 0.000 0.000 0.000 2.082
2205 1 0.460 12.922 29.630 0.001 0.000 -0.001 2.189
2206 1 4.167 11.414 29.293 -0.005 -0.002 -0.002 2.378
2207 1 0.991 13.117 38.818 0.002 0.005 -0.002 2.218
2208 1 4.309 11.194 38.510 0.003 0.006 0.001 2.311
2211 3 6.518 7.309 19.536 0.000 0.000 0.000 -1.109
2212 3 9.572 9.336 18.992 0.000 0.000 0.000 -1.111
2213 3 6.111 6.911 28.231 -0.001 0.009 0.003 -1.081
2214 3 9.276 9.797 29.205 0.004 -0.006 0.001 -1.074
2215 3 6.297 7.936 37.930 0.014 0.006 0.000 -1.168
2216 3 9.763 9.389 38.263 -0.002 -0.015 0.006 -1.235
2219 3 7.625 9.292 22.048 -0.008 -0.002 -0.008 -1.144
2220 3 10.625 7.681 22.951 0.008 -0.011 0.019 -1.157
2221 3 7.402 8.825 31.534 -0.002 0.017 -0.001 -1.082
2222 3 10.250 7.063 31.404 0.002 0.005 0.012 -1.195
2223 3 7.197 9.347 41.688 0.009 -0.006 0.002 -1.090
2224 3 10.632 7.860 40.934 0.008 -0.009 0.003 -1.250
2227 3 8.583 7.832 25.933 0.009 -0.002 -0.019 -1.200
2228 3 12.493 9.532 25.137 -0.003 -0.004 -0.007 -1.148
2229 3 8.157 7.876 34.684 0.006 -0.010 -0.005 -1.184
2230 3 11.660 10.531 34.970 -0.002 0.005 0.007 -0.786
2233 3 6.538 7.597 23.769 0.012 -0.005 0.007 -1.214
2234 3 9.766 9.566 23.821 0.003 -0.005 -0.010 -1.145
2235 3 7.162 9.236 27.652 -0.001 -0.010 0.001 -1.047
2236 3 11.360 7.930 26.877 -0.010 -0.002 -0.001 -1.096
2237 3 7.944 10.190 36.560 0.004 0.012 -0.009 -1.180
2238 3 10.376 7.957 35.585 0.003 0.004 -0.001 -1.145
2239 3 7.125 6.361 42.847 0.015 -0.005 -0.003 -1.074
2240 3 9.748 9.734 42.298 0.008 0.010 -0.001 -1.125
2245 3 7.313 5.840 32.367 0.007 -0.002 0.005 -1.097
2246 3 9.343 9.835 33.158 -0.006 0.001 -0.015 -1.220
2247 3 8.949 7.610 20.784 0.000 0.000 0.000 -1.139
2248 3 12.070 8.837 20.735 0.000 0.000 0.000 -1.017
2249 3 7.353 7.392 29.538 0.012 -0.005 -0.007 -0.948
2250 3 8.338 7.675 39.804 -0.008 0.003 0.003 -1.147
2251 3 12.317 9.830 40.149 -0.000 0.002 0.013 -0.949
2254 1 6.518 7.787 26.342 -0.003 0.000 0.002 2.449
2255 1 10.063 9.271 25.815 -0.004 0.001 0.004 2.100
2256 1 6.379 7.723 35.851 0.003 -0.005 -0.003 2.193
2257 1 9.487 9.656 35.302 -0.001 -0.000 0.001 2.248
2260 1 8.531 7.708 23.030 0.004 -0.000 0.000 2.291
2261 1 11.779 9.349 22.794 0.002 0.003 0.001 2.313
2262 1 8.756 7.581 32.525 -0.002 0.001 -0.005 2.072
2263 2 12.037 9.819 32.226 0.001 0.007 0.002 1.661
2264 1 8.693 7.457 41.889 0.005 0.010 -0.001 2.290
2265 1 11.887 9.256 42.126 -0.002 0.001 0.001 2.314
2268 1 7.585 9.207 19.958 0.000 0.000 0.000 2.137
2269 1 10.717 7.534 19.765 0.000 0.000 0.000 2.121
2270 1 7.267 9.600 29.587 -0.003 0.003 0.002 2.325
2271 2 10.365 7.481 29.070 0.001 0.004 -0.003 1.667
2272 1 7.460 9.523 38.474 -0.007 0.000 0.002 2.137
2273 1 10.427 7.810 38.955 0.000 0.004 0.006 2.299
2276 3 7.643 11.249 20.014 0.000 0.000 0.000 -0.893
2277 3 11.348 13.113 19.059 0.000 0.000 0.000 -1.001
2278 3 6.216 11.469 28.830 0.003 0.006 -0.011 -1.001
2279 3 10.106 13.200 28.532 -0.007 0.010 -0.002 -1.168
2280 3 6.164 12.169 37.665 -0.004 -0.000 -0.001 -1.106
2281 3 8.609 15.008 38.923 0.002 -0.010 0.009 -1.113
2284 3 8.212 13.686 21.869 -0.008 -0.008 0.009 -1.130
2285 3 10.686 10.503 21.366 0.000 0.000 0.000 -0.949
2286 3 6.130 12.255 33.591 0.010 0.008 -0.003 -0.976
2287 3 7.909 11.425 30.487 0.001 -0.008 0.005 -1.102
2288 3 7.291 13.938 40.692 0.001 0.010 -0.007 -1.140
2289 3 10.186 11.667 40.520 -0.004 0.006 -0.001 -0.981
2292 3 9.123 11.224 26.158 0.006 -0.009 0.014 -0.959
2293 3 11.663 12.733 25.366 -0.002 0.010 -0.004 -1.054
2294 3 8.181 11.803 34.594 0.004 -0.015 0.006 -1.091
2295 3 12.047 13.281 34.744 0.004 -0.010 -0.003 -1.297
2298 3 6.374 11.410 22.855 0.001 0.005 0.004 -1.142
2299 3 9.659 13.321 24.119 -0.007 -0.007 -0.001 -1.094
2300 3 7.204 13.452 27.655 -0.000 0.004 0.006 -1.047
2301 3 10.845 10.767 27.052 0.014 0.007 0.003 -1.137
2302 3 7.863 13.655 36.598 0.008 0.011 -0.002 -1.090
2303 3 10.691 11.105 36.162 -0.004 0.005 0.012 -1.017
2304 3 6.335 11.716 42.433 -0.006 0.006 0.003 -1.027
2305 3 9.005 12.973 42.704 -0.001 0.009 0.002 -1.036
2310 3 10.548 11.388 31.305 0.009 0.008 0.001 -1.090
2311 3 8.887 11.933 18.888 0.000 0.000 0.000 -0.842
2312 3 11.404 13.368 21.411 0.000 0.000 0.000 -1.112
2313 3 8.049 13.518 31.856 0.005 -0.002 -0.009 -1.151
2314 3 12.360 13.544 30.663 0.001 0.006 -0.005 -0.999
2315 3 7.712 11.520 39.849 -0.001 0.003 -0.002 -1.014
2316 3 9.434 12.608 38.039 0.002 0.012 0.000 -1.147
2318 2 6.681 11.335 26.489 -0.005 -0.000 -0.000 1.666
2319 1 9.840 13.211 26.347 0.005 -0.001 0.000 2.175
2320 1 6.287 11.629 35.598 0.003 -0.001 0.000 2.285
2321 1 9.734 13.094 35.642 0.002 0.000 -0.004 2.186
2324 2 8.792 11.484 22.633 0.000 -0.001 0.002 1.715
2325 1 11.954 13.447 23.247 -0.005 -0.002 0.006 2.305
2326 1 8.821 11.662 32.479 0.001 0.002 -0.005 2.216
2327 1 11.909 13.516 32.708 0.000 -0.006 0.003 2.357
2328 1 8.444 11.133 41.690 0.006 -0.003 -0.004 2.321
2329 2 11.946 13.156 41.277 -0.005 -0.002 0.004 1.683
2332 1 7.668 13.405 19.823 0.000 0.000 0.000 2.136
2333 1 10.750 11.063 19.356 0.000 0.000 0.000 2.099
2334 1 7.365 13.483 29.787 0.001 -0.002 -0.001 2.235
2335 1 10.617 11.277 29.193 -0.003 -0.003 -0.003 2.229
2336 1 7.500 13.332 38.630 0.003 0.001 0.002 2.466
2337 1 10.758 11.339 38.470 0.001 0.004 0.002 2.126
2340 3 12.823 7.387 18.914 0.000 0.000 0.000 -1.123
2341 3 16.304 9.456 19.283 0.000 0.000 0.000 -1.087
2342 3 14.096 6.111 26.967 -0.001 -0.005 0.004 -1.176
2343 3 16.108 9.948 28.820 -0.008 -0.002 0.005 -1.298
2344 3 10.293 4.096 36.085 0.003 0.005 0.006 -1.163
2345 3 15.610 8.999 38.112 -0.007 -0.003 0.007 -1.203
2348 3 13.785 9.344 22.650 -0.011 -0.006 -0.002 -0.959
2349 3 17.604 7.135 21.715 -0.001 -0.011 -0.007 -0.997
2350 3 14.463 9.565 31.624 -0.004 -0.003 0.009 -1.186
2351 3 17.101 8.261 31.486 0.009 0.008 0.003 -1.242
2352 3 14.191 9.479 41.068 0.004 0.005 0.001 -1.119
2353 3 17.294 7.523 41.089 0.003 0.001 0.009 -1.052
2356 3 14.970 8.002 25.467 0.005 -0.007 0.011 -1.061
2357 3 17.374 9.380 25.023 -0.005 -0.007 0.003 -0.789
2358 3 15.175 7.771 34.808 -0.007 0.009 -0.005 -1.012
2359 3 18.385 9.614 34.896 -0.003 0.001 -0.005 -1.199
2362 3 13.132 7.209 23.787 0.001 -0.002 0.005 -1.301
2363 3 16.637 8.473 22.690 -0.005 0.002 -0.006 -0.831
2364 3 13.932 9.653 27.584 0.005 0.003 -0.006 -1.083
2365 3 18.754 7.242 28.265 -0.004 0.008 0.005 -1.117
2366 3 14.034 10.056 35.955 0.002 0.005 0.010 -1.107
2367 3 17.276 7.956 36.579 -0.002 -0.006 0.011 -1.164
2368 3 12.441 7.461 42.650 -0.002 -0.002 0.011 -1.311
2369 3 16.181 9.500 42.464 0.006 -0.003 0.005 -1.221
2374 3 13.206 7.741 32.887 -0.002 0.005 0.004 -1.068
2375 3 16.009 10.085 33.642 -0.002 0.002 0.002 -1.094
2376 3 14.852 7.894 20.624 0.000 0.000 0.000 -1.056
2377 3 18.307 9.701 20.947 0.000 0.000 0.000 -1.031
2378 3 16.191 5.965 28.874 -0.008 0.001 0.000 -1.040
2379 3 18.588 9.667 29.502 0.009 -0.002 -0.000 -1.014
2380 3 14.876 7.107 39.829 -0.007 0.008 -0.007 -1.167
2381 3 17.636 9.587 39.474 0.001 -0.008 -0.004 -1.101
2384 1 12.991 7.407 25.773 0.004 -0.005 0.003 2.298
2385 1 15.950 9.663 26.618 -0.001 -0.005 0.003 2.299
2386 2 12.826 7.795 35.918 -0.000 -0.004 -0.005 1.627
2387 1 16.067 9.543 35.793 -0.008 0.001 0.004 2.229
2390 1 14.873 7.414 22.734 0.001 -0.003 0.001 2.367
2391 1 18.406 9.469 23.068 -0.003 0.005 -0.002 2.220
2392 1 15.198 7.779 32.425 0.001 0.006 -0.002 2.286
2393 1 18.191 9.573 32.745 0.003 0.003 0.005 2.261
2394 1 15.253 7.822 41.763 0.004 0.003 -0.000 2.256
2395 1 18.280 9.565 41.645 -0.000 -0.002 0.006 2.300
2398 1 14.056 9.230 19.403 0.000 0.000 0.000 2.077
2399 1 17.262 7.698 19.899 0.000 0.000 0.000 2.224
2400 1 14.228 9.849 29.624 0.004 -0.003 0.002 2.305
2401 1 17.040 7.959 29.375 -0.002 -0.001 -0.003 2.243
2402 1 13.950 9.810 38.847 0.005 -0.001 0.005 2.258
2403 1 16.892 7.720 38.686 -0.002 -0.002 -0.002 2.373
2406 3 12.752 10.831 18.766 0.000 0.000 0.000 -1.082
2407 3 16.058 13.344 19.325 0.000 0.000 0.000 -1.068
2408 3 12.131 9.815 29.722 0.006 -0.002 0.001 -1.015
2409 3 16.049 13.636 29.086 0.004 0.001 -0.003 -1.097
2410 3 12.767 11.720 38.094 0.000 0.010 -0.011 -1.333
2411 3 16.148 13.363 37.840 0.000 0.004 -0.019 -1.128
2414 3 14.059 13.759 23.208 -0.005 0.006 0.006 -1.016
2415 3 17.344 11.363 22.435 -0.005 -0.001 -0.002 -1.041
2416 3 14.494 11.856 30.351 0.005 0.005 0.001 -1.064
2417 3 16.957 10.903 31.322 -0.006 -0.015 -0.006 -1.154
2418 3 13.994 12.359 40.522 0.004 -0.001 -0.005 -1.093
2419 3 17.397 11.392 41.074 0.002 -0.005 -0.007 -1.269
2422 3 14.780 10.984 25.704 0.004 0.005 0.000 -1.066
2423 3 18.143 13.012 26.080 -0.002 -0.001 0.006 -1.056
2424 3 15.034 12.236 34.478 -0.002 0.014 -0.001 -1.105
2425 3 18.098 12.936 34.953 0.009 0.006 -0.009 -1.197
2428 3 12.353 11.444 23.004 -0.005 0.005 0.004 -0.963
2429 3 16.371 13.247 23.931 0.016 0.015 -0.000 -1.024
2430 3 14.142 13.644 27.044 -0.006 -0.006 -0.015 -1.226
2431 3 16.691 11.759 27.304 0.005 -0.014 0.000 -1.074
2432 3 14.056 13.450 36.370 0.016 -0.009 0.007 -1.318
2433 3 17.314 10.995 36.477 -0.013 -0.002 -0.004 -1.075
2434 3 13.432 10.644 42.991 -0.005 0.005 -0.004 -1.011
2435 3 16.037 12.635 42.684 0.008 -0.002 0.005 -1.134
2440 3 13.225 12.006 32.487 -0.005 0.009 0.000 -1.000
2441 3 16.168 13.248 32.494 0.013 -0.000 -0.003 -1.241
2442 3 14.975 11.137 19.932 0.000 0.000 0.000 -0.968
2443 3 18.140 13.485 20.932 0.000 0.000 0.000 -1.219
2444 3 12.753 11.891 28.489 -0.003 0.009 0.010 -1.071
2445 3 18.096 13.185 30.475 -0.007 -0.007 -0.009 -1.106
2446 3 15.277 11.271 38.970 0.007 -0.001 -0.002 -1.110
2447 3 18.334 13.328 39.493 -0.003 -0.001 0.002 -1.250
2450 1 12.769 11.020 26.416 -0.001 -0.001 0.001 2.223
2451 1 16.214 13.473 26.326 0.004 0.001 0.000 2.368
2452 1 13.147 11.899 35.606 0.000 0.001 0.003 2.238
2453 1 16.178 13.368 35.741 -0.004 0.002 0.001 2.276
2456 2 14.862 11.430 23.184 -0.004 0.001 -0.001 1.725
2457 1 18.293 13.177 22.976 -0.003 0.003 0.006 2.247
2458 1 15.350 11.557 32.435 0.000 0.000 0.002 2.421
2459 1 18.344 13.371 32.642 -0.003 -0.002 -0.004 2.136
2460 1 15.158 11.285 41.678 -0.001 0.005 -0.005 2.293
2461 1 18.039 13.272 41.831 -0.003 0.002 0.002 2.236
2464 2 13.797 12.979 18.821 0.000 0.000 0.000 1.652
2465 1 17.035 11.422 20.031 0.000 0.000 0.000 2.066
2466 1 13.975 13.428 29.128 -0.002 -0.004 -0.003 2.376
2467 1 17.280 11.555 29.429 0.002 0.004 0.002 2.291
2468 1 14.002 13.257 38.581 0.003 0.001 -0.000 2.289
2469 1 17.425 11.565 38.936 -0.001 -0.002 0.002 2.272
2472 3 19.397 7.899 19.465 0.000 0.000 0.000 -1.044
2473 3 22.611 9.435 19.762 0.000 0.000 0.000 -1.061
2474 3 21.241 7.513 29.301 0.005 -0.006 -0.007 -1.101
2475 3 20.823 9.700 26.457 0.006 -0.002 -0.014 -1.166
2476 3 18.873 7.566 38.357 -0.007 -0.012 0.003 -1.090
2477 3 22.219 9.714 38.099 0.008 -0.005 -0.003 -1.112
2480 3 20.452 10.139 22.380 -0.007 0.005 -0.007 -1.141
2481 3 23.773 7.597 22.189 -0.019 0.002 -0.004 -1.249
2482 3 20.199 9.456 32.127 -0.007 -0.001 -0.004 -1.115
2483 3 24.649 7.833 31.897 0.003 -0.003 0.000 -0.785
2484 3 19.812 8.902 40.667 0.003 0.006 0.003 -1.181
2485 3 22.761 12.211 40.020 0.003 -0.003 -0.010 -0.975
2488 3 20.933 7.281 25.392 0.001 -0.015 0.004 -1.035
2489 3 24.948 9.364 25.684 -0.003 0.002 -0.016 -1.023
2490 3 22.019 7.744 34.683 -0.002 -0.006 -0.013 -1.152
2494 3 19.107 7.548 23.946 -0.005 0.009 -0.004 -1.026
2495 3 22.696 9.480 23.968 -0.002 -0.004 -0.010 -1.266
2496 3 18.458 9.412 26.344 0.004 -0.007 -0.003 -0.956
2497 3 23.461 7.737 26.482 -0.008 -0.002 0.007 -1.021
2498 3 20.213 9.429 36.303 -0.002 0.005 0.001 -1.167
2499 3 23.662 8.032 36.510 -0.010 -0.003 0.007 -1.059
2501 3 22.006 9.558 42.207 -0.007 -0.005 0.006 -1.211
2506 3 19.252 7.746 33.638 0.010 0.000 0.003 -1.260
2507 3 22.341 9.660 33.340 0.003 0.012 0.007 -1.158
2508 3 21.180 7.624 21.207 0.000 0.000 0.000 -1.066
2509 3 24.830 9.960 21.066 0.000 0.000 0.000 -1.158