ITEM: TIMESTEP
30000
ITEM: NUMBER OF ATOMS
37374
ITEM: BOX BOUNDS pp pp pp
0.000000 102.779942
0.000000 118.660062
0.000000 130.735200
ITEM: ATOMS id type x y z vx vy vz q
2 3 3.194 2.308 19.117 0.000 0.000 0.000 -1.066
4 3 3.573 1.975 28.456 -0.002 -0.007 -0.000 -1.042
6 3 2.805 2.080 38.282 0.001 0.008 -0.013 -1.133
9 3 1.113 1.284 21.750 0.001 -0.005 -0.002 -1.047
11 3 1.285 1.887 31.505 -0.000 -0.000 0.006 -1.157
13 3 0.745 1.878 40.976 -0.009 -0.006 -0.002 -0.995
17 3 1.463 0.888 24.779 0.010 0.009 -0.007 -1.004
18 3 5.857 2.144 25.194 0.001 -0.002 -0.005 -1.087
20 3 5.051 1.670 35.251 0.000 -0.004 -0.011 -1.128
24 3 3.233 1.887 23.624 -0.006 -0.010 0.008 -1.072
25 3 0.669 2.357 27.277 -0.005 0.001 0.020 -1.063
30 3 3.259 2.101 42.567 0.001 0.009 -0.009 -1.112
36 3 3.365 2.458 33.300 0.005 -0.005 -0.010 -1.161
37 3 1.881 0.228 19.742 0.000 0.000 0.000 -1.158
38 3 5.513 1.819 19.848 0.000 0.000 0.000 -1.064
40 3 5.286 1.969 30.379 0.015 -0.001 0.012 -1.079
42 3 5.222 2.012 38.528 -0.002 -0.006 0.007 -1.204
46 2 3.346 2.003 26.066 -0.002 -0.005 -0.004 1.686
48 1 2.969 2.254 35.232 -0.001 -0.005 -0.001 2.333
52 1 5.588 1.874 22.974 -0.002 0.005 0.001 2.095
54 1 5.531 1.691 32.523 -0.000 0.003 0.002 2.129
56 1 5.051 1.942 41.262 -0.005 0.003 -0.002 2.225
59 1 1.108 2.215 19.775 0.000 0.000 0.000 2.177
60 1 4.018 0.309 19.738 0.000 0.000 0.000 2.267
61 1 0.760 1.865 29.395 0.005 -0.004 -0.004 2.277
63 1 1.000 1.728 37.923 0.005 0.003 -0.000 2.358
67 3 0.086 4.021 19.084 0.000 0.000 0.000 -1.091
68 3 3.421 5.669 19.058 0.000 0.000 0.000 -1.074
70 3 2.761 6.402 28.759 0.007 0.006 -0.003 -1.025
72 3 2.749 5.487 37.713 -0.008 0.004 -0.002 -1.004
76 3 4.254 3.227 21.903 -0.008 0.001 -0.012 -1.134
77 3 0.700 5.121 31.255 0.016 -0.003 -0.003 -1.177
78 3 3.945 4.060 31.564 0.003 0.007 -0.002 -1.144
79 3 0.880 6.104 40.618 0.002 0.006 -0.004 -1.030
80 3 4.255 3.763 40.211 -0.006 -0.012 0.003 -1.134
83 3 1.019 5.554 26.356 -0.009 0.014 -0.010 -1.160
84 3 5.127 5.336 25.423 -0.000 -0.010 0.009 -1.026
85 3 1.779 3.866 35.098 0.001 -0.000 -0.004 -1.137
86 3 4.070 7.228 36.431 0.010 -0.010 0.000 -1.169
89 3 2.698 4.138 24.918 0.003 -0.001 -0.005 -0.959
90 3 3.252 5.736 23.031 0.003 0.005 -0.000 -1.076
92 3 3.586 5.152 27.822 0.003 -0.006 0.001 -0.915
94 3 3.971 3.923 36.181 0.004 -0.009 0.017 -1.270
96 3 3.139 5.748 42.452 0.002 0.000 0.001 -1.087
102 3 2.170 5.683 33.516 0.015 -0.002 -0.018 -1.160
103 3 1.960 4.014 20.727 0.000 0.000 0.000 -1.090
104 3 5.058 5.763 20.991 0.000 0.000 0.000 -1.119
105 3 1.870 3.602 29.425 -0.014 0.003 -0.000 -1.066
106 3 5.443 5.243 30.226 0.002 -0.000 -0.002 -1.162
107 3 1.416 3.782 38.076 0.014 -0.013 0.007 -0.994
108 3 5.217 5.629 38.957 0.000 0.001 0.008 -1.317
112 1 3.125 5.908 26.105 0.006 -0.001 0.002 2.228
114 1 3.011 5.684 35.496 -0.006 0.001 -0.006 2.301
117 1 2.468 3.787 22.835 -0.001 -0.001 0.002 2.201
118 1 5.505 5.698 23.134 -0.001 -0.001 -0.001 2.106
119 1 2.035 3.927 32.430 0.004 -0.001 -0.004 2.255
120 1 5.455 5.328 32.415 -0.001 0.001 -0.003 2.283
121 2 1.778 3.928 41.622 -0.002 0.001 -0.003 1.612
122 1 5.246 5.617 41.292 -0.002 0.005 -0.001 2.060
125 1 1.243 5.880 19.517 0.000 0.000 0.000 2.104
126 1 4.463 3.941 19.823 0.000 0.000 0.000 2.134
127 1 0.854 5.721 29.325 -0.003 0.003 0.002 2.254
128 1 4.083 3.740 29.504 -0.002 0.002 -0.003 2.280
129 1 0.684 5.678 38.472 -0.001 -0.006 -0.000 2.306
130 1 4.005 3.752 38.207 0.001 -0.004 -0.006 2.363
134 3 9.828 2.071 19.444 0.000 0.000 0.000 -1.088
136 3 10.505 0.601 27.156 -0.002 -0.000 0.001 -1.162
138 3 8.432 3.772 34.724 -0.003 -0.003 0.013 -1.168
141 3 7.572 1.284 21.952 0.010 -0.004 0.006 -1.298
143 3 7.393 2.123 31.733 -0.004 0.007 0.006 -1.075
144 3 10.882 1.435 30.468 -0.000 -0.006 -0.004 -1.111
145 3 6.784 1.618 40.415 -0.008 -0.002 0.001 -1.234
150 3 11.354 1.320 24.962 0.005 -0.007 0.003 -1.077
152 3 11.928 1.790 34.478 -0.010 0.006 0.014 -1.186
156 3 9.441 1.919 23.867 0.016 -0.002 -0.013 -1.252
157 3 7.776 1.902 26.972 -0.005 -0.007 0.005 -1.251
159 3 7.465 1.958 36.286 0.012 0.019 -0.015 -1.260
162 3 9.150 1.950 41.889 0.014 0.019 -0.004 -1.057
168 3 9.407 2.127 33.210 0.000 0.010 -0.000 -1.096
169 3 8.337 0.112 19.404 0.000 0.000 0.000 -1.116
170 3 11.991 2.067 20.912 0.000 0.000 0.000 -1.137
173 3 10.338 2.028 37.657 -0.003 0.001 -0.007 -1.150
177 1 9.795 2.030 26.030 0.001 -0.001 0.001 2.339
179 1 9.487 1.993 35.525 0.003 0.003 -0.001 2.109
183 1 11.284 1.692 22.812 0.002 -0.000 -0.002 2.244
185 1 11.797 2.185 32.327 -0.001 -0.000 0.004 2.194
187 2 11.702 1.798 41.569 0.001 -0.001 -0.003 1.712
190 1 7.618 2.008 20.016 0.000 0.000 0.000 2.200
192 1 7.133 1.943 29.095 -0.008 0.000 0.002 2.183
194 1 7.238 2.154 38.501 0.001 -0.001 -0.006 2.363
198 3 6.608 4.036 19.356 0.000 0.000 0.000 -1.082
199 3 9.667 5.592 19.337 0.000 0.000 0.000 -1.150
200 3 5.970 3.933 28.457 -0.003 -0.009 -0.000 -1.161
201 3 8.379 5.513 27.539 -0.014 -0.010 -0.006 -1.066
202 3 6.426 3.962 37.468 -0.008 -0.003 0.002 -1.287
203 3 8.904 5.656 37.710 -0.017 0.001 -0.005 -1.270
206 3 7.339 6.010 22.077 -0.005 -0.011 0.006 -1.095
207 3 10.735 3.671 22.214 0.002 0.006 0.012 -1.263
208 3 7.751 5.509 31.692 -0.001 0.005 -0.008 -1.135
209 3 10.412 3.874 31.572 -0.011 0.007 0.001 -1.092
210 3 7.369 5.303 40.455 -0.004 -0.006 0.011 -1.129
211 3 11.043 3.776 40.570 -0.010 -0.001 0.006 -1.103
214 3 8.554 3.564 25.667 0.007 0.009 0.013 -1.208
215 3 11.556 6.379 26.154 0.000 -0.012 -0.001 -0.971
216 3 4.883 5.620 34.387 -0.005 0.006 0.009 -1.187
217 3 12.122 4.253 33.703 -0.000 -0.015 0.006 -1.062
220 3 6.420 3.866 23.615 0.007 0.001 0.004 -1.118
221 3 9.582 5.497 23.753 0.004 -0.022 -0.002 -1.217
222 3 7.014 5.903 26.026 -0.005 -0.005 0.006 -0.922
223 3 11.128 3.638 26.792 0.008 0.012 -0.002 -1.215
224 3 7.198 5.715 35.328 -0.002 -0.000 -0.016 -1.075
225 3 12.849 3.918 37.285 0.016 0.004 0.015 -1.152
227 3 9.607 5.512 41.945 -0.002 0.004 0.002 -1.040
231 3 6.152 3.643 33.251 0.001 0.006 0.004 -1.246
232 3 10.139 5.332 33.432 0.007 -0.008 -0.003 -1.020
233 3 8.427 3.647 20.952 0.000 0.000 0.000 -1.277
234 3 11.762 5.978 20.872 0.000 0.000 0.000 -1.102
235 3 8.158 3.640 29.519 -0.007 0.007 0.009 -1.073
236 3 12.157 6.010 30.203 0.001 -0.001 -0.004 -1.034
237 3 8.560 3.402 39.303 -0.010 0.007 0.003 -1.303
238 3 12.235 8.214 37.598 0.005 0.001 -0.011 -1.038
241 1 6.619 3.949 26.278 -0.003 0.004 0.002 2.170
242 1 9.607 5.663 25.849 0.002 0.004 -0.001 2.112
243 1 6.247 3.765 35.380 0.003 0.002 0.003 2.210
244 1 9.240 5.526 35.377 0.004 -0.003 0.000 2.240
247 1 8.661 3.644 23.095 -0.000 0.001 0.005 2.068
248 1 11.590 5.671 23.051 0.004 0.002 -0.001 2.166
249 1 8.654 3.680 32.394 0.000 0.000 0.001 2.289
250 1 11.849 5.744 32.331 -0.003 0.004 -0.007 2.407
251 1 8.449 3.787 41.276 0.004 0.002 -0.009 2.256
252 1 11.668 5.721 40.908 0.002 0.002 0.003 2.254
255 1 7.677 5.633 20.123 0.000 0.000 0.000 2.190
256 1 10.605 3.818 20.133 0.000 0.000 0.000 2.206
257 1 7.248 5.605 29.161 0.002 -0.005 0.000 2.261
258 2 10.636 3.330 29.165 0.000 0.003 0.003 1.622
259 1 7.049 5.573 38.416 0.002 0.001 0.001 2.482
260 1 10.450 4.040 38.316 0.007 0.003 0.000 2.102
263 3 12.537 0.171 19.265 0.000 0.000 0.000 -1.024
264 3 17.790 2.402 19.135 0.000 0.000 0.000 -1.129
266 3 16.126 1.846 28.189 -0.004 0.011 0.009 -1.221
270 3 14.663 1.686 21.661 -0.006 -0.014 0.010 -1.029
272 3 13.907 2.280 31.709 -0.006 -0.007 -0.001 -1.211
274 3 14.141 1.927 41.032 0.003 -0.010 0.002 -1.131
279 3 18.334 2.333 25.411 0.007 0.011 -0.001 -1.152
281 3 18.279 1.680 34.540 0.003 0.003 0.004 -1.194
285 3 16.509 2.242 23.857 -0.003 -0.005 0.004 -1.057
286 3 13.310 2.144 26.942 -0.006 -0.013 -0.008 -0.990
288 3 14.220 1.860 35.493 -0.008 0.002 -0.000 -1.260
291 3 16.495 0.684 42.811 0.002 -0.008 0.002 -1.083
297 3 16.362 1.689 32.960 0.004 -0.015 0.001 -1.242
298 3 15.041 0.456 19.380 0.000 0.000 0.000 -1.168
299 3 17.771 1.182 21.423 0.000 0.000 0.000 -0.886
301 3 17.955 1.794 29.969 0.003 -0.005 -0.016 -1.182
303 3 17.997 1.945 38.389 0.001 -0.003 -0.007 -1.291
307 1 16.118 1.905 25.971 0.003 0.004 0.004 2.136
309 1 16.195 1.968 34.944 0.000 0.004 -0.000 2.225
313 1 18.497 2.077 23.049 0.003 -0.000 -0.007 2.215
315 1 18.233 2.155 32.112 -0.006 0.001 0.003 2.309
317 1 18.266 1.823 41.748 0.002 -0.005 -0.005 2.229
320 1 13.752 1.988 19.922 0.000 0.000 0.000 2.212
321 1 17.064 0.459 19.618 0.000 0.000 0.000 2.218
322 1 14.277 2.130 29.031 0.000 -0.002 0.002 2.187
324 2 14.272 1.858 37.813 -0.006 -0.002 -0.000 1.578
328 3 12.549 3.936 19.387 0.000 0.000 0.000 -1.074
329 3 15.921 6.204 19.412 0.000 0.000 0.000 -1.066
330 3 13.093 3.848 28.595 0.009 0.005 0.003 -1.116
331 3 16.172 7.194 27.497 0.010 0.006 0.003 -1.078
332 3 11.967 5.394 38.681 -0.003 0.006 -0.022 -1.197
333 3 16.743 5.914 37.427 0.011 0.006 -0.000 -1.064
336 3 14.261 5.631 21.704 -0.002 -0.000 -0.007 -1.036
337 3 17.832 3.875 21.811 -0.004 -0.002 0.001 -1.091
338 3 13.288 7.636 28.088 0.008 0.002 -0.005 -1.058
339 3 17.081 3.650 31.690 -0.001 0.012 0.009 -1.266
340 3 13.943 5.229 40.897 0.001 -0.003 -0.005 -1.202
341 3 17.085 3.299 40.523 0.005 0.007 0.002 -1.192
344 3 18.005 6.129 25.447 0.009 0.008 -0.020 -1.086
345 3 15.160 3.841 34.321 -0.007 0.001 -0.001 -1.084
346 3 18.405 5.613 34.397 0.002 -0.005 -0.004 -1.189
349 3 12.482 4.232 24.194 -0.003 0.007 -0.006 -1.134
350 3 16.095 5.674 24.008 0.015 0.015 0.006 -1.068
351 3 15.080 3.589 26.019 -0.003 -0.006 0.002 -1.146
352 3 17.289 4.081 27.230 0.001 0.004 0.008 -1.125
353 3 14.555 6.016 36.312 0.001 -0.012 -0.012 -1.105
354 3 17.027 3.646 36.035 -0.011 -0.001 -0.007 -1.232
356 3 16.276 5.253 42.253 0.002 -0.003 0.013 -1.242
361 3 13.242 4.391 31.629 -0.011 -0.003 -0.002 -1.019
362 3 16.249 5.491 33.039 -0.005 -0.006 0.003 -1.094
363 3 15.037 3.722 19.639 0.000 0.000 0.000 -1.145
364 3 18.493 5.606 19.488 0.000 0.000 0.000 -1.118
365 3 15.283 4.054 29.535 -0.009 0.001 -0.012 -1.111
366 3 17.838 5.712 29.164 0.009 0.012 0.004 -1.004
367 3 15.403 3.934 38.741 -0.001 -0.007 0.017 -1.207
368 3 19.015 4.836 39.523 -0.010 0.004 0.001 -1.166
371 1 12.907 4.145 26.261 -0.001 0.002 -0.002 2.210
372 1 16.089 5.626 26.141 0.005 0.003 -0.003 2.239
373 1 12.684 3.358 35.412 0.002 -0.006 -0.003 2.171
374 1 16.232 5.439 35.285 -0.004 0.001 0.008 2.275
377 2 14.727 3.779 23.073 0.002 0.003 -0.001 1.641
378 1 18.245 5.585 23.159 -0.005 -0.001 -0.002 2.290
379 1 15.077 3.842 32.042 0.002 0.002 0.004 2.231
380 1 18.178 5.769 32.297 0.003 -0.003 0.001 2.292
381 1 15.141 3.761 41.360 -0.002 0.001 0.002 2.134
382 1 18.313 5.682 41.629 -0.006 -0.005 0.003 2.195
385 1 13.797 5.702 19.676 0.000 0.000 0.000 2.155
386 1 17.074 4.184 19.822 0.000 0.000 0.000 2.093
387 1 13.786 5.753 28.997 -0.002 0.001 -0.005 2.216
388 1 17.420 3.590 29.129 -0.000 0.000 -0.002 2.202
389 1 14.073 5.421 38.238 0.002 0.001 -0.002 2.177
390 1 17.497 3.935 38.572 -0.003 -0.006 0.003 2.223
394 3 22.553 2.319 19.102 0.000 0.000 0.000 -1.010
396 3 22.484 1.942 28.976 0.011 -0.007 -0.006 -1.165
398 3 23.103 1.881 37.591 -0.008 0.002 0.012 -1.245
401 3 20.367 2.603 22.503 -0.015 -0.004 0.014 -1.111
403 3 20.373 2.238 31.248 -0.009 0.001 0.001 -1.177
405 3 20.238 2.032 41.134 -0.002 0.000 0.007 -1.153
410 3 25.404 1.991 25.458 -0.005 -0.005 -0.024 -1.153
412 3 24.808 2.456 34.243 0.006 0.002 -0.003 -1.070
416 3 22.843 1.775 23.976 -0.004 -0.009 0.004 -1.221
417 3 20.530 2.117 26.937 -0.003 -0.004 0.004 -1.203
419 3 20.552 2.076 35.866 0.014 -0.003 0.006 -1.219
422 3 22.549 2.294 42.469 0.004 -0.003 -0.003 -1.115
428 3 22.143 1.985 32.955 0.010 -0.007 -0.020 -1.168
429 3 21.127 0.328 20.740 0.000 0.000 0.000 -1.100
430 3 23.740 2.545 21.578 0.005 0.002 0.000 -1.065
432 3 24.723 2.103 29.655 0.008 -0.002 0.002 -1.323
438 1 22.624 2.094 26.168 0.000 0.002 0.004 2.248
440 1 22.726 2.261 35.287 -0.006 -0.000 0.003 2.113
443 1 21.558 0.532 22.794 0.000 -0.001 -0.003 2.248
444 1 24.695 2.034 23.334 0.003 0.003 0.001 2.238
446 1 24.668 2.087 32.139 -0.002 -0.003 -0.003 2.264
448 1 24.604 1.846 41.725 -0.005 -0.003 0.003 2.289
451 2 20.178 2.057 19.185 0.000 0.000 0.000 1.655
452 1 23.654 0.697 20.057 0.000 0.000 0.000 2.144
453 1 20.555 1.798 29.252 0.002 -0.004 0.000 2.405
455 1 20.287 1.849 38.066 -0.002 -0.001 0.004 2.059
459 3 22.396 6.231 19.569 0.000 0.000 0.000 -1.069
460 3 19.632 3.735 28.752 0.009 -0.002 -0.006 -1.294
461 3 22.402 5.758 28.392 -0.004 -0.002 -0.009 -0.927
462 3 19.571 4.135 37.205 0.006 0.018 0.003 -1.168
463 3 22.689 5.424 37.729 -0.013 -0.003 0.007 -1.193
466 3 20.171 5.805 22.149 0.003 0.009 -0.007 -1.150
467 3 23.129 5.054 22.132 -0.002 -0.000 0.014 -1.116
468 3 19.804 5.248 31.078 -0.007 0.002 -0.007 -1.113
469 3 23.764 3.864 31.928 0.008 -0.001 -0.004 -1.109
470 3 20.498 5.614 41.302 0.006 -0.008 -0.003 -1.162
471 3 23.327 4.381 40.319 0.011 -0.005 -0.004 -0.981
474 3 22.640 3.926 25.045 0.017 0.012 -0.003 -0.981
475 3 24.527 5.879 25.253 -0.005 -0.006 0.001 -1.133
476 3 21.549 4.116 34.590 0.009 0.000 0.004 -1.111
477 3 24.476 6.200 34.267 -0.006 -0.004 0.000 -1.136
480 3 19.609 4.247 24.190 -0.005 0.003 0.010 -1.112
481 3 22.323 6.221 24.178 -0.007 -0.014 -0.005 -1.126
482 3 20.424 5.489 26.726 -0.007 -0.005 -0.006 -1.210
483 3 23.394 3.775 27.090 -0.003 0.004 0.006 -1.189
484 3 20.918 6.187 36.213 -0.001 -0.010 -0.004 -1.103
485 3 23.990 4.133 35.969 0.019 -0.004 0.005 -1.251
486 3 19.199 3.743 42.493 -0.003 0.004 -0.008 -1.048
487 3 22.833 4.975 42.543 -0.004 0.018 -0.005 -1.095
492 3 19.305 3.868 33.190 -0.003 -0.009 0.014 -1.155
493 3 21.901 5.783 32.446 -0.009 0.004 -0.007 -1.012
494 3 21.183 4.279 19.663 0.000 0.000 0.000 -1.042
495 3 24.817 5.508 20.070 0.000 0.000 0.000 -1.111
496 3 21.842 4.155 29.931 -0.009 0.001 0.002 -0.941
497 3 24.193 5.632 29.963 0.001 0.014 -0.007 -1.073
498 3 21.379 3.526 39.008 0.003 -0.003 -0.007 -1.139
499 3 25.154 6.242 39.686 0.011 -0.009 -0.006 -1.143
502 1 19.449 3.804 26.517 0.003 0.005 0.003 2.167
503 1 22.713 5.876 26.274 -0.003 -0.003 0.002 2.346
504 1 19.268 3.675 35.225 0.005 0.004 0.002 2.206
505 1 22.684 5.743 35.473 0.001 -0.001 0.003 2.360
508 1 21.516 4.365 23.132 -0.002 -0.006 -0.003 2.117
509 1 24.722 5.820 23.289 -0.006 0.001 0.000 2.326
510 1 21.346 3.807 32.270 0.002 0.004 0.005 2.303
511 1 24.407 5.913 32.157 -0.002 0.002 0.001 2.239
512 1 21.434 3.645 41.323 0.004 -0.001 -0.002 2.259
513 1 24.572 5.766 41.534 -0.006 0.004 0.001 2.250
516 1 20.403 6.034 20.157 0.000 0.000 0.000 2.329
517 1 23.352 3.966 19.998 0.000 0.000 0.000 2.221
518 1 20.355 5.540 29.251 -0.005 -0.002 -0.002 2.413
519 1 23.769 3.745 29.137 0.000 -0.004 -0.002 2.367
520 1 20.577 5.484 38.434 0.008 0.001 0.008 2.293
521 1 23.699 3.579 38.298 0.001 -0.002 -0.006 2.299
524 3 25.592 0.122 19.242 0.000 0.000 0.000 -1.080
589 3 24.997 2.634 19.510 0.000 0.000 0.000 -1.005
2080 3 0.080 7.586 18.848 0.000 0.000 0.000 -1.106
2081 3 2.664 8.225 19.641 0.000 0.000 0.000 -0.980
2083 3 3.709 11.319 27.080 -0.015 0.001 -0.012 -1.119
2085 3 1.795 11.086 38.973 -0.003 0.005 -0.003 -1.074
2088 3 1.326 9.466 21.998 0.005 -0.017 -0.005 -1.180
2089 3 4.445 8.068 22.084 0.006 -0.002 -0.002 -1.288
2090 3 1.412 9.573 32.326 0.005 0.013 -0.009 -1.005
2091 3 3.973 6.893 31.467 -0.005 0.014 -0.001 -1.145
2092 3 1.400 9.280 40.680 0.006 -0.003 0.005 -1.049
2093 3 4.189 7.454 41.040 -0.007 -0.000 -0.011 -1.288
2096 3 1.889 7.218 24.748 -0.014 0.015 -0.007 -1.062
2097 3 5.527 9.823 25.302 -0.005 0.002 0.003 -1.126
2098 3 1.768 7.620 35.778 -0.001 0.005 -0.005 -1.136
2099 3 5.512 9.468 34.817 0.003 0.006 -0.004 -1.116
2103 3 3.392 9.501 23.640 -0.001 0.004 0.010 -1.371
2105 3 4.345 7.895 26.236 -0.008 0.011 -0.008 -1.219
2106 3 1.388 10.072 36.539 0.001 -0.004 -0.001 -1.065
2107 3 3.897 9.203 37.455 0.009 -0.005 0.006 -1.018
2109 3 3.005 9.529 42.656 0.001 -0.005 -0.020 -1.276
2115 3 3.310 8.689 33.601 -0.008 -0.010 0.007 -1.116
2116 3 1.883 7.109 20.988 0.000 0.000 0.000 -0.966
2117 3 5.332 9.411 19.736 0.000 0.000 0.000 -1.095
2118 3 3.383 9.193 29.129 -0.004 -0.010 0.006 -1.120
2119 3 5.419 9.020 29.827 -0.015 -0.001 -0.021 -1.052
2120 3 1.906 7.334 38.947 -0.006 0.006 -0.009 -1.060
2121 3 5.528 8.871 39.405 -0.013 -0.000 -0.002 -1.178
2125 1 3.361 9.720 25.819 0.003 0.003 0.001 2.185
2127 1 3.047 9.331 35.449 -0.007 0.000 0.001 2.363
2130 1 2.637 7.879 22.834 0.002 0.001 -0.000 2.284
2131 1 5.672 9.417 23.100 -0.002 0.001 -0.001 2.245
2132 1 2.100 7.587 32.402 0.001 -0.001 0.008 2.184
2133 2 5.338 9.559 32.323 0.004 0.001 0.006 1.706
2134 1 2.142 7.722 41.862 0.003 0.003 0.001 2.224
2135 1 5.001 9.326 41.531 0.004 -0.005 0.005 2.274
2138 1 0.977 9.496 19.852 0.000 0.000 0.000 2.147
2139 1 4.366 7.432 20.081 0.000 0.000 0.000 2.299
2140 1 1.103 9.145 28.869 -0.004 0.003 0.000 2.208
2141 1 4.335 7.320 29.459 -0.000 0.004 -0.001 2.263
2142 1 0.993 9.231 38.520 -0.003 -0.002 -0.003 2.220
2143 1 4.122 7.393 38.547 -0.001 0.001 0.001 2.213
2146 3 0.022 11.240 19.029 0.000 0.000 0.000 -1.044
2147 3 3.170 13.236 19.491 0.000 0.000 0.000 -1.007
2149 3 2.899 12.883 28.827 0.001 -0.006 0.003 -0.999
2151 3 3.389 13.001 37.695 0.009 -0.009 -0.005 -1.152
2154 3 1.090 12.860 22.357 0.007 -0.003 0.007 -1.250
2155 3 3.944 11.747 22.194 0.004 -0.006 -0.008 -1.125
2156 3 1.374 13.551 31.408 -0.002 0.002 0.014 -1.119
2157 3 3.693 11.215 31.267 0.007 0.003 0.000 -1.027
2159 3 3.908 10.804 40.477 -0.004 0.002 -0.007 -1.131
2162 3 1.809 11.045 25.258 -0.007 0.002 -0.018 -1.085
2163 3 5.882 13.547 25.379 0.004 -0.014 -0.005 -1.080
2164 3 2.114 10.748 34.364 -0.015 -0.002 -0.012 -1.025
2165 3 5.760 13.303 34.967 0.003 -0.007 0.007 -1.282
2169 3 3.371 13.643 23.988 0.010 0.006 0.010 -1.149
2172 3 4.257 11.160 36.264 -0.006 0.012 0.008 -1.018
2180 3 3.403 12.839 33.467 0.007 0.005 -0.008 -1.154
2181 3 2.388 10.949 19.611 0.000 0.000 0.000 -1.097
2182 3 5.581 12.872 19.891 0.000 0.000 0.000 -1.134
2183 3 1.497 10.967 30.083 -0.004 0.004 -0.014 -1.086
2184 3 5.656 13.994 29.761 0.003 0.002 0.007 -1.015
2185 3 0.644 13.605 40.354 -0.001 -0.002 -0.008 -1.070
2186 3 5.067 13.242 39.408 -0.009 -0.007 -0.001 -1.105
2190 2 3.103 13.555 26.351 -0.001 0.007 -0.002 1.685
2192 1 3.677 13.424 35.518 0.004 0.002 -0.002 2.105
2195 1 2.191 11.182 23.112 0.001 0.005 -0.001 2.101
2196 1 5.254 13.297 23.417 0.004 -0.000 0.000 2.190
2197 1 1.992 11.463 32.293 0.000 -0.003 0.002 2.275
2198 1 5.598 13.366 32.718 0.002 0.002 0.000 2.108
2199 1 1.994 11.243 41.426 -0.003 0.000 -0.001 2.342
2200 1 5.009 13.272 41.471 0.006 -0.003 0.001 2.401
2203 1 1.045 12.961 19.923 0.000 0.000 0.000 2.020
2204 1 4.396 11.329 20.041 0.000 0.000 0.000 2.078
2205 1 0.915 12.969 29.303 -0.003 0.001 -0.004 2.279
2206 1 4.044 11.094 29.123 0.004 -0.001 0.002 2.201
2207 1 1.153 13.105 38.342 -0.004 -0.003 0.003 2.319
2208 1 4.332 11.263 38.495 0.001 0.001 0.002 2.224
2211 3 6.518 7.309 19.536 0.000 0.000 0.000 -1.070
2212 3 9.572 9.336 18.992 0.000 0.000 0.000 -1.122
2213 3 6.074 7.328 28.314 0.006 -0.001 0.012 -1.099
2214 3 9.303 9.696 28.787 -0.008 0.008 0.004 -1.024
2215 3 6.475 7.219 37.370 0.015 0.007 0.010 -1.056
2216 3 9.258 9.233 38.573 -0.031 0.001 -0.005 -1.237
2219 3 7.221 9.252 21.952 0.007 -0.008 -0.013 -1.347
2220 3 10.900 7.679 23.354 -0.002 -0.004 0.003 -1.065
2221 3 7.704 9.205 31.482 0.003 -0.003 -0.013 -1.190
2222 3 10.630 7.297 31.797 -0.003 0.011 -0.007 -1.100
2223 3 7.161 9.362 41.576 0.006 0.012 0.011 -1.148
2224 3 10.074 6.963 40.207 -0.003 0.000 0.001 -1.075
2227 3 8.871 7.585 25.206 -0.005 0.007 0.006 -1.086
2228 3 12.311 9.660 24.819 -0.001 -0.002 -0.002 -1.199
2229 3 8.782 7.301 34.325 -0.005 0.002 -0.004 -1.146
2230 3 11.023 10.288 35.447 -0.007 0.002 0.004 -1.019
2233 3 6.545 7.841 23.939 -0.006 -0.004 0.010 -1.278
2234 3 9.617 9.482 23.615 0.006 -0.011 -0.003 -1.219
2235 3 7.108 9.306 27.440 -0.003 -0.004 -0.006 -1.058
2236 3 11.180 8.069 26.616 -0.011 0.002 -0.005 -0.890
2237 3 7.645 9.377 36.212 0.001 0.004 -0.006 -1.134
2238 3 10.512 7.406 36.115 -0.002 -0.016 -0.021 -1.127
2239 3 7.075 6.361 42.413 0.015 0.003 0.009 -1.100
2240 3 9.731 9.239 42.058 0.004 0.007 -0.011 -1.277
2245 3 6.560 7.206 33.121 -0.004 -0.009 0.003 -1.003
2246 3 9.969 10.129 33.325 -0.001 -0.004 -0.000 -1.120
2247 3 8.949 7.610 20.784 0.000 0.000 0.000 -1.210
2248 3 12.070 8.837 20.735 0.000 0.000 0.000 -1.105
2249 3 8.498 6.913 30.135 -0.011 0.002 -0.002 -1.072
2250 3 7.846 7.373 39.151 0.004 -0.003 -0.006 -1.022
2251 3 11.540 9.455 39.468 0.012 0.005 -0.004 -0.991
2254 1 6.254 7.849 26.162 -0.000 -0.004 -0.003 2.297
2255 1 10.117 9.324 25.436 -0.000 -0.008 -0.002 2.233
2256 1 5.926 7.434 35.341 0.001 0.000 -0.004 2.168
2257 1 9.393 9.239 35.078 -0.002 -0.002 -0.001 2.129
2260 1 8.473 7.875 23.008 0.001 0.006 0.001 2.210
2261 1 11.963 9.353 22.658 -0.006 0.002 0.002 2.283
2262 1 8.545 7.322 32.176 0.002 0.001 -0.001 2.213
2263 2 12.143 10.169 32.291 0.002 -0.002 0.002 1.600
2264 1 8.268 7.576 41.324 0.002 0.003 -0.003 2.198
2265 1 11.915 9.298 41.693 0.004 -0.000 0.001 2.199
2268 1 7.585 9.207 19.958 0.000 0.000 0.000 2.160
2269 1 10.717 7.534 19.765 0.000 0.000 0.000 2.114
2270 1 7.365 9.680 29.392 -0.000 -0.003 0.006 2.236
2271 2 10.718 7.679 29.244 -0.000 -0.001 0.001 1.710
2272 1 7.220 9.391 38.387 -0.003 -0.003 0.000 2.271
2273 1 10.196 7.593 38.214 -0.001 -0.002 -0.002 2.178
2276 3 7.643 11.249 20.014 0.000 0.000 0.000 -0.952
2277 3 11.348 13.113 19.059 0.000 0.000 0.000 -1.011
2278 3 6.060 11.553 29.312 -0.001 0.002 0.001 -1.093
2279 3 10.778 12.846 27.959 -0.004 -0.005 -0.006 -1.011
2280 3 6.361 11.354 37.825 0.000 -0.008 0.001 -1.315
2281 3 8.302 15.064 39.231 0.001 0.001 0.005 -1.180
2284 3 8.213 13.642 21.772 0.011 0.014 0.009 -1.104
2285 3 10.686 10.503 21.366 0.000 0.000 0.000 -0.979
2286 3 6.444 11.572 32.687 -0.001 -0.011 -0.006 -1.116
2287 3 8.301 11.491 30.177 -0.003 0.010 -0.003 -1.211
2288 3 7.148 13.138 40.787 0.007 0.003 0.016 -1.069
2289 3 10.615 11.194 40.588 0.006 -0.001 -0.002 -0.971
2292 3 9.404 11.287 25.699 -0.005 0.007 -0.010 -0.967
2293 3 11.885 13.065 25.728 -0.004 0.000 -0.010 -1.191
2294 3 8.220 11.296 34.423 -0.009 0.002 -0.005 -1.187
2295 3 11.529 12.663 34.330 -0.005 -0.012 0.011 -1.145
2298 3 6.279 11.475 23.165 0.005 -0.015 0.001 -1.099
2299 3 9.815 13.265 23.895 0.010 0.006 -0.002 -1.093
2300 3 8.340 13.010 27.927 0.007 0.012 0.005 -1.052
2301 3 10.708 10.629 27.010 -0.003 -0.008 0.007 -0.944
2302 3 8.031 12.485 36.449 -0.007 -0.009 0.003 -0.915
2303 3 10.158 11.589 36.501 -0.003 -0.012 0.002 -0.919
2304 3 5.519 11.497 42.350 0.001 -0.002 -0.003 -1.016
2305 3 9.195 12.773 42.240 -0.001 0.005 0.008 -0.983
2310 3 10.588 11.783 31.193 -0.006 0.006 -0.005 -1.035
2311 3 8.887 11.933 18.888 0.000 0.000 0.000 -0.846
2312 3 11.404 13.368 21.411 0.000 0.000 0.000 -1.007
2313 3 7.294 13.701 31.696 -0.004 0.007 0.002 -1.172
2314 3 11.811 13.499 30.108 -0.008 0.005 -0.007 -1.196
2315 3 7.869 10.978 39.660 -0.013 -0.017 -0.001 -1.045
2316 3 9.579 12.915 38.699 -0.011 0.008 -0.005 -1.108
2318 2 6.930 11.562 26.432 -0.000 -0.003 -0.000 1.625
2319 1 9.656 13.324 26.225 0.003 -0.001 -0.001 2.190
2320 1 6.395 11.250 35.536 -0.002 0.001 0.001 2.222
2321 1 9.625 12.859 35.103 -0.002 -0.002 0.004 2.421
2324 2 8.628 11.300 22.341 -0.004 0.001 -0.001 1.685
2325 1 11.819 13.396 23.349 0.003 -0.004 0.003 2.227
2326 1 8.554 11.239 32.386 -0.004 0.005 -0.000 2.244
2327 1 11.619 13.478 32.141 -0.006 -0.004 0.006 2.202
2328 1 8.521 10.907 41.608 0.002 -0.001 -0.002 2.332
2329 2 11.496 13.245 41.433 0.001 -0.002 0.003 1.694
2332 1 7.668 13.405 19.823 0.000 0.000 0.000 2.163
2333 1 10.750 11.063 19.356 0.000 0.000 0.000 2.090
2334 1 7.530 13.276 29.706 0.001 0.000 -0.000 2.470
2335 1 10.704 11.205 29.169 -0.000 0.003 0.003 2.217
2336 1 7.333 12.931 38.468 0.001 0.000 -0.000 2.302
2337 1 10.583 10.927 38.523 0.003 0.005 0.004 2.206
2340 3 12.823 7.387 18.914 0.000 0.000 0.000 -1.113
2341 3 16.304 9.456 19.283 0.000 0.000 0.000 -1.105
2342 3 14.060 5.845 26.729 -0.002 0.009 0.010 -1.309
2343 3 16.168 9.101 28.844 0.008 -0.009 -0.002 -1.192
2344 3 10.657 3.908 36.060 -0.006 0.010 -0.018 -1.172
2345 3 15.718 9.367 37.754 -0.017 0.003 0.009 -1.254
2348 3 14.086 8.995 22.605 0.000 0.002 -0.019 -1.103
2349 3 17.420 6.495 21.709 0.004 0.001 0.003 -0.942
2350 3 14.311 9.311 31.260 0.009 0.002 -0.007 -1.175
2351 3 17.226 7.252 31.259 -0.002 0.010 0.004 -1.178
2352 3 13.850 9.687 40.503 -0.000 0.003 -0.000 -1.104
2353 3 16.890 6.991 40.591 -0.001 -0.010 0.012 -1.061
2356 3 15.318 7.891 25.006 -0.018 -0.004 -0.002 -1.146
2357 3 17.395 9.810 24.913 0.003 0.001 0.000 -1.092
2358 3 15.649 7.638 34.173 0.004 -0.005 0.002 -1.099
2359 3 18.510 8.922 34.280 0.018 0.005 -0.008 -1.040
2362 3 13.232 6.804 23.885 -0.000 -0.006 0.018 -1.080
2363 3 16.903 7.997 22.694 0.007 -0.001 0.016 -0.954
2364 3 14.225 9.455 26.827 -0.000 -0.010 -0.000 -1.208
2365 3 18.246 8.857 26.835 -0.002 -0.008 0.002 -1.042
2366 3 14.044 9.798 35.630 0.000 -0.017 -0.019 -1.137
2367 3 17.261 7.666 35.992 0.009 -0.004 0.000 -1.117
2368 3 12.699 7.340 41.374 -0.005 -0.002 -0.001 -1.130
2369 3 15.881 9.098 41.738 0.008 0.009 -0.006 -1.076
2374 3 13.312 6.839 33.001 -0.001 0.004 0.002 -1.206
2375 3 16.336 9.545 32.556 0.005 -0.008 -0.010 -1.133
2376 3 14.852 7.894 20.624 0.000 0.000 0.000 -0.999
2377 3 18.307 9.701 20.947 0.000 0.000 0.000 -1.061
2378 3 14.887 6.743 30.416 0.002 -0.007 -0.000 -1.059
2379 3 18.551 9.287 30.054 0.006 0.014 0.012 -1.253
2380 3 14.773 7.251 38.711 0.001 -0.016 0.003 -1.218
2381 3 17.852 8.732 39.870 0.005 -0.006 0.008 -1.196
2384 1 13.229 7.713 25.994 -0.002 -0.004 0.004 2.292
2385 1 16.189 9.025 26.397 0.003 0.006 -0.007 2.402
2386 2 12.873 7.489 35.415 0.003 -0.001 -0.002 1.605
2387 1 16.038 9.222 35.340 0.001 -0.001 -0.010 2.201
2390 1 15.016 7.369 22.799 0.003 0.004 -0.002 2.391
2391 1 18.469 9.273 23.159 -0.002 -0.000 -0.002 2.178
2392 1 15.128 7.580 32.206 -0.005 0.001 -0.004 2.263
2393 1 18.470 9.480 32.130 0.001 0.000 0.002 2.271
2394 1 15.011 7.132 41.343 -0.003 -0.005 0.004 2.207
2395 1 18.115 9.314 41.495 0.003 -0.002 0.005 2.479
2398 1 14.056 9.230 19.403 0.000 0.000 0.000 2.069
2399 1 17.262 7.698 19.899 0.000 0.000 0.000 2.163
2400 1 14.099 9.507 29.144 0.004 -0.001 -0.003 2.193
2401 1 17.488 7.722 29.272 -0.003 0.001 0.001 2.371
2402 1 13.723 9.259 38.471 -0.002 -0.007 -0.001 2.263
2403 1 16.960 7.689 38.273 0.002 -0.004 -0.002 2.244
2406 3 12.752 10.831 18.766 0.000 0.000 0.000 -1.083
2407 3 16.058 13.344 19.325 0.000 0.000 0.000 -1.053
2408 3 12.075 9.716 29.813 -0.002 0.004 0.021 -1.092
2409 3 16.125 12.814 28.663 -0.001 -0.000 -0.012 -1.243
2410 3 12.766 11.134 37.893 0.014 -0.010 -0.006 -1.236
2411 3 15.761 12.690 37.298 0.009 -0.017 -0.000 -1.184
2414 3 13.850 13.607 22.899 0.009 0.002 0.003 -1.105
2415 3 17.017 11.783 22.099 0.005 -0.002 -0.006 -1.039
2416 3 15.154 11.544 30.199 0.002 -0.008 0.004 -1.127
2417 3 17.433 11.429 31.305 0.001 0.007 -0.003 -1.104
2418 3 13.752 13.343 40.536 0.010 0.005 -0.016 -1.108
2419 3 17.007 11.672 40.689 0.016 -0.017 -0.005 -1.133
2422 3 14.342 12.071 25.439 -0.000 -0.008 0.002 -1.069
2423 3 18.125 12.502 26.122 0.013 -0.007 -0.003 -1.113
2424 3 14.454 11.365 34.248 -0.003 0.009 -0.004 -1.108
2425 3 18.385 12.561 34.559 -0.004 -0.010 -0.001 -1.006
2428 3 12.432 11.423 23.082 0.005 -0.002 -0.002 -0.951
2429 3 16.529 12.866 24.307 0.009 0.011 0.001 -1.063
2430 3 14.356 13.830 27.180 -0.002 -0.004 -0.003 -1.107
2431 3 16.461 10.741 27.281 -0.008 0.002 -0.002 -1.073
2432 3 13.186 13.342 36.263 0.008 -0.008 -0.000 -1.001
2433 3 17.054 10.857 35.433 -0.005 0.013 -0.002 -1.269
2434 3 12.803 11.242 42.212 -0.007 -0.002 0.009 -1.080
2435 3 15.873 13.150 42.518 0.002 -0.009 0.009 -1.073
2440 3 13.353 12.267 31.865 -0.010 0.003 -0.005 -1.126
2441 3 15.985 12.974 32.782 0.001 -0.003 0.006 -1.223
2442 3 14.975 11.137 19.932 0.000 0.000 0.000 -0.957
2443 3 18.140 13.485 20.932 0.000 0.000 0.000 -1.128
2444 3 13.162 11.393 28.246 0.003 0.004 0.013 -1.213
2445 3 18.158 13.330 30.428 -0.002 0.005 0.005 -0.889
2446 3 15.008 11.295 39.130 0.011 0.007 -0.002 -1.118
2447 3 18.122 13.030 38.542 -0.003 -0.010 0.003 -1.242
2450 1 12.739 11.206 26.283 -0.001 0.004 0.000 2.219
2451 1 16.008 12.879 26.291 0.004 -0.008 0.004 2.238
2452 1 12.730 11.351 35.691 0.005 -0.000 -0.004 2.187
2453 1 15.987 12.736 35.293 0.002 -0.004 -0.003 2.168
2456 2 14.897 11.296 23.149 -0.003 -0.002 0.002 1.729
2457 1 18.124 13.204 23.138 0.005 -0.004 0.002 2.287
2458 1 15.184 11.249 32.247 0.002 -0.007 -0.001 2.254
2459 1 18.386 12.979 32.546 0.005 0.001 -0.001 2.259
2460 1 14.994 11.052 41.511 -0.001 0.004 0.001 2.237
2461 1 18.255 12.935 41.416 -0.005 0.003 -0.008 2.304
2464 2 13.797 12.979 18.821 0.000 0.000 0.000 1.660
2465 1 17.035 11.422 20.031 0.000 0.000 0.000 2.148
2466 1 13.937 13.110 29.207 -0.006 0.001 -0.002 2.218
2467 1 17.139 11.225 29.290 0.001 -0.001 -0.005 2.378
2468 1 14.023 12.966 38.577 0.002 0.001 0.004 2.344
2469 1 16.965 11.136 38.406 0.000 -0.002 0.005 2.116
2472 3 19.397 7.899 19.465 0.000 0.000 0.000 -1.050
2473 3 22.611 9.435 19.762 0.000 0.000 0.000 -1.048
2474 3 19.405 7.164 28.253 -0.000 0.005 -0.002 -0.982
2475 3 20.684 10.080 27.243 -0.010 -0.000 0.004 -1.129
2476 3 19.068 7.482 37.722 0.011 -0.000 -0.009 -1.186
2477 3 21.738 9.582 37.093 -0.004 -0.004 -0.001 -1.248
2480 3 20.657 9.773 22.198 0.002 -0.006 0.009 -1.272
2481 3 24.171 7.583 22.181 -0.004 0.001 0.005 -1.132
2482 3 20.790 9.665 31.381 -0.005 -0.000 -0.009 -1.264
2483 3 23.695 7.639 31.747 0.003 0.005 0.002 -1.246
2484 3 20.197 8.922 40.676 -0.015 -0.000 -0.016 -1.018
2485 3 23.017 7.253 40.827 -0.001 0.001 0.010 -1.110
2488 3 21.704 7.695 25.799 0.012 -0.001 -0.007 -1.202
2489 3 24.710 9.755 25.512 -0.004 0.005 0.001 -1.051
2490 3 22.222 7.377 34.138 -0.006 0.007 0.007 -1.014
2491 3 24.382 9.640 35.116 -0.009 0.004 -0.001 -1.190
2494 3 19.301 7.486 23.552 0.004 -0.011 -0.008 -1.143
2495 3 22.705 9.293 23.724 -0.014 -0.003 -0.002 -1.282
2496 3 20.183 9.197 24.623 0.006 0.004 -0.012 -1.107
2497 3 23.762 7.664 27.061 -0.008 -0.004 0.001 -1.132
2498 3 20.510 9.066 35.148 0.009 -0.010 -0.006 -1.186