ITEM: TIMESTEP
50000
ITEM: NUMBER OF ATOMS
37374
ITEM: BOX BOUNDS pp pp pp
0.000000 102.779942
0.000000 118.660062
0.000000 130.735200
ITEM: ATOMS id type x y z vx vy vz q
2 3 3.194 2.308 19.117 0.000 0.000 0.000 -1.048
4 3 2.567 1.378 28.726 -0.007 -0.001 0.001 -1.113
6 3 3.009 2.305 37.415 -0.005 -0.006 -0.003 -1.123
9 3 1.721 1.937 21.918 -0.002 0.004 0.009 -1.130
11 3 0.970 1.486 31.271 0.013 -0.012 -0.006 -1.200
13 3 1.032 1.816 40.811 -0.006 0.001 0.004 -1.041
18 3 5.754 2.199 25.300 0.001 0.004 -0.002 -1.154
20 3 5.023 2.140 34.429 -0.011 0.009 0.009 -1.020
24 3 3.653 1.894 24.014 0.002 -0.009 -0.008 -1.124
30 3 3.168 1.965 42.049 0.006 0.011 -0.001 -1.045
36 3 2.836 2.181 33.138 -0.008 0.004 -0.001 -1.295
37 3 1.881 0.228 19.742 0.000 0.000 0.000 -1.187
38 3 5.513 1.819 19.848 0.000 0.000 0.000 -1.044
40 3 5.173 2.057 28.972 0.013 0.004 -0.007 -1.105
42 3 5.509 1.480 37.712 -0.001 0.003 -0.014 -0.849
46 2 2.917 2.141 26.305 0.001 -0.004 0.004 1.620
48 1 3.028 1.848 35.239 -0.001 0.000 0.001 2.269
52 1 5.392 2.153 23.157 0.002 0.001 0.001 2.357
54 1 5.324 2.227 32.453 -0.001 0.004 -0.003 2.249
56 1 5.159 2.111 41.597 0.002 0.004 -0.004 2.295
59 1 1.108 2.215 19.775 0.000 0.000 0.000 2.175
60 1 4.018 0.309 19.738 0.000 0.000 0.000 2.225
61 1 0.777 2.092 29.082 -0.011 0.004 0.006 2.176
63 1 1.209 2.007 38.263 -0.002 0.003 -0.002 2.360
67 3 0.086 4.021 19.084 0.000 0.000 0.000 -1.083
68 3 3.421 5.669 19.058 0.000 0.000 0.000 -1.072
70 3 3.709 5.728 28.639 -0.001 0.001 -0.008 -1.274
72 3 3.381 5.745 37.422 0.010 -0.010 0.000 -1.192
76 3 4.389 3.403 22.066 0.001 0.002 0.006 -1.165
77 3 0.474 4.866 31.120 0.001 0.004 0.010 -0.971
78 3 4.400 3.718 31.341 0.006 0.005 -0.009 -1.319
80 3 4.122 3.205 40.091 -0.002 -0.010 0.000 -1.020
83 3 2.344 4.451 26.147 0.005 -0.010 -0.009 -1.069
84 3 5.136 5.580 25.116 -0.002 -0.010 -0.002 -1.144
85 3 2.056 3.833 35.317 0.003 -0.000 -0.006 -1.107
86 3 4.284 8.274 36.330 -0.010 -0.015 0.008 -1.217
89 3 0.546 3.546 23.914 -0.001 -0.000 -0.001 -1.056
90 3 3.413 5.613 23.423 0.005 0.003 -0.010 -1.085
92 3 5.167 4.341 27.585 -0.007 0.010 -0.021 -1.166
94 3 4.471 4.052 35.799 -0.006 0.007 -0.004 -1.134
96 3 3.437 5.814 42.453 0.005 -0.004 -0.008 -1.119
102 3 2.924 5.529 32.920 -0.004 -0.016 0.000 -1.142
103 3 1.960 4.014 20.727 0.000 0.000 0.000 -1.176
104 3 5.058 5.763 20.991 0.000 0.000 0.000 -1.190
105 3 2.272 3.561 29.712 -0.003 -0.008 0.008 -1.142
106 3 5.612 5.192 30.115 -0.004 -0.004 -0.007 -1.060
107 3 1.717 4.061 38.749 0.011 -0.006 0.001 -1.140
108 3 6.521 3.826 38.254 0.005 -0.006 0.005 -1.203
112 1 3.834 5.975 26.601 0.000 0.002 0.000 2.105
114 1 3.238 5.554 35.303 0.001 0.002 -0.002 2.298
117 1 2.115 3.924 22.650 -0.002 -0.001 0.002 2.192
118 1 5.592 5.437 22.986 -0.003 -0.001 0.002 2.369
119 1 2.302 3.906 32.139 0.001 0.002 0.001 2.237
120 1 5.505 5.641 32.291 -0.002 -0.003 -0.003 2.198
121 2 2.030 4.131 41.175 0.006 0.001 -0.002 1.655
122 1 5.324 5.896 41.422 -0.000 -0.000 0.002 2.152
125 1 1.243 5.880 19.517 0.000 0.000 0.000 2.114
126 1 4.463 3.941 19.823 0.000 0.000 0.000 2.123
127 1 0.967 5.627 29.091 0.003 0.002 -0.002 2.119
128 1 4.325 3.917 29.393 -0.003 -0.003 -0.006 2.426
129 1 1.014 5.771 38.020 -0.006 0.002 -0.002 2.411
130 1 4.294 3.890 38.194 0.004 0.001 0.004 2.237
134 3 9.828 2.071 19.444 0.000 0.000 0.000 -1.077
138 3 8.376 3.905 34.599 0.000 -0.003 -0.005 -1.165
141 3 7.187 1.821 22.156 0.002 0.008 -0.023 -1.187
143 3 7.361 2.325 31.993 0.003 0.011 -0.009 -1.113
144 3 10.950 1.493 30.570 -0.008 0.004 -0.007 -1.149
145 3 6.949 1.824 40.563 -0.015 0.001 -0.003 -1.149
150 3 11.281 1.531 25.082 -0.010 -0.005 0.014 -1.085
152 3 12.050 2.293 34.762 -0.005 0.003 -0.001 -1.164
156 3 9.209 1.956 23.756 0.000 -0.005 0.002 -1.232
157 3 9.306 1.336 28.679 0.007 -0.003 0.007 -1.185
159 3 6.944 2.082 35.976 -0.005 -0.000 -0.003 -1.146
162 3 9.121 2.026 41.716 -0.019 0.002 -0.003 -1.160
168 3 9.711 2.181 33.327 0.004 0.004 -0.014 -0.997
169 3 8.337 0.112 19.404 0.000 0.000 0.000 -1.123
170 3 11.991 2.067 20.912 0.000 0.000 0.000 -1.032
173 3 11.007 1.976 38.009 0.000 0.006 -0.003 -0.866
177 1 9.493 2.014 26.341 -0.000 -0.003 0.002 2.252
179 1 9.817 2.043 35.570 0.004 0.001 -0.002 2.266
183 1 11.201 1.670 23.048 0.003 0.001 0.002 2.126
185 1 11.741 1.995 32.313 0.002 -0.002 0.001 2.194
187 2 11.650 1.862 41.449 0.002 0.003 -0.005 1.670
190 1 7.618 2.008 20.016 0.000 0.000 0.000 2.178
192 1 7.381 1.438 28.908 -0.002 -0.008 0.004 2.210
194 1 7.390 2.031 38.499 0.001 0.001 -0.003 2.440
198 3 6.608 4.036 19.356 0.000 0.000 0.000 -1.062
199 3 9.667 5.592 19.337 0.000 0.000 0.000 -1.158
200 3 7.603 2.049 27.019 -0.008 -0.007 0.000 -1.237
201 3 9.108 6.065 27.835 0.004 -0.007 -0.009 -1.065
202 3 9.133 2.317 37.482 -0.002 -0.001 -0.002 -1.111
203 3 9.560 6.064 37.796 0.008 0.003 0.016 -1.212
206 3 7.258 5.700 22.067 -0.003 -0.007 -0.003 -1.193
207 3 10.643 3.724 22.179 0.009 -0.004 -0.007 -1.209
208 3 8.548 4.576 30.075 0.005 0.015 -0.003 -0.810
209 3 10.569 3.929 31.716 0.007 -0.008 -0.005 -1.074
210 3 7.627 6.126 40.843 -0.001 0.011 -0.000 -1.184
211 3 11.198 4.006 40.271 0.012 0.011 0.006 -1.091
214 3 8.953 3.987 25.906 0.001 -0.003 -0.001 -1.129
215 3 11.704 5.816 25.284 -0.007 -0.003 -0.005 -1.288
216 3 5.146 6.466 34.427 -0.006 0.010 0.015 -1.136
217 3 13.126 4.359 33.084 0.008 -0.012 0.002 -1.124
220 3 6.511 3.902 23.559 -0.000 0.000 0.000 -1.335
221 3 9.459 5.249 23.870 -0.000 0.007 0.012 -1.227
222 3 7.177 5.846 26.538 0.005 -0.013 -0.007 -1.229
223 3 11.147 3.323 26.905 0.012 -0.003 0.001 -1.019
224 3 7.347 5.527 36.166 -0.012 -0.002 0.002 -1.290
225 3 12.415 3.916 37.597 0.003 0.003 -0.007 -1.060
227 3 9.895 5.666 42.375 0.000 0.019 -0.010 -1.098
231 3 5.987 4.136 33.419 -0.001 -0.017 -0.001 -1.293
232 3 10.169 5.731 33.178 -0.009 0.001 -0.006 -1.161
233 3 8.427 3.647 20.952 0.000 0.000 0.000 -1.193
234 3 11.762 5.978 20.872 0.000 0.000 0.000 -1.046
235 3 7.465 3.659 28.810 -0.015 -0.005 0.003 -0.878
236 3 12.273 6.065 30.079 0.011 -0.006 -0.002 -1.184
237 3 8.706 4.336 39.416 0.001 0.004 -0.000 -1.193
238 3 12.505 8.045 38.032 0.013 -0.003 -0.009 -1.059
241 1 6.644 3.750 26.149 -0.000 0.003 -0.002 2.164
242 1 9.736 5.923 25.779 0.004 0.003 0.001 2.244
243 1 6.495 3.925 35.291 0.002 -0.001 -0.004 2.374
244 1 9.338 5.661 35.465 -0.000 0.003 0.002 2.042
247 1 8.593 3.596 23.135 -0.000 -0.003 0.004 2.293
248 1 11.663 5.616 22.998 -0.004 -0.001 0.004 2.249
249 1 8.587 3.993 32.243 -0.005 -0.001 0.001 2.163
250 1 11.988 5.818 32.158 0.002 -0.002 0.002 2.174
251 1 8.408 4.028 41.626 -0.002 0.003 -0.000 2.134
252 1 11.775 5.702 41.269 -0.005 0.005 -0.002 2.234
255 1 7.677 5.633 20.123 0.000 0.000 0.000 2.185
256 1 10.605 3.818 20.133 0.000 0.000 0.000 2.210
257 1 7.261 5.666 28.639 0.003 0.000 0.000 2.207
258 2 10.543 3.466 29.308 -0.002 0.001 -0.004 1.717
259 1 7.338 5.628 38.667 -0.003 0.000 0.001 2.250
260 1 10.412 3.905 38.279 0.003 0.007 0.000 2.272
263 3 12.537 0.171 19.265 0.000 0.000 0.000 -1.033
264 3 17.790 2.402 19.135 0.000 0.000 0.000 -1.166
266 3 16.069 2.097 28.468 0.003 -0.008 0.000 -1.056
270 3 14.616 1.657 21.839 0.003 -0.006 -0.001 -1.024
272 3 13.687 1.832 31.662 0.006 -0.001 0.006 -1.227
274 3 14.160 1.990 41.087 0.004 0.004 0.006 -1.117
279 3 18.587 2.037 25.836 0.007 0.002 -0.006 -0.989
281 3 18.374 1.642 34.490 0.002 -0.006 0.001 -1.134
285 3 16.385 2.097 24.109 0.003 -0.000 0.002 -1.065
286 3 13.768 2.498 26.935 0.006 0.010 -0.001 -1.089
288 3 14.814 2.655 36.058 0.006 -0.009 -0.010 -1.101
291 3 16.131 1.393 42.716 -0.005 -0.007 0.001 -1.066
297 3 16.167 2.447 32.999 -0.012 0.003 -0.005 -1.309
298 3 15.041 0.456 19.380 0.000 0.000 0.000 -1.170
299 3 17.771 1.182 21.423 0.000 0.000 0.000 -0.930
301 3 18.263 1.672 30.000 -0.012 0.003 0.003 -1.117
303 3 17.718 1.919 38.443 -0.005 0.002 0.010 -1.135
307 1 15.822 1.832 26.372 0.002 0.003 -0.006 2.332
309 1 16.453 1.940 35.155 0.003 -0.005 -0.004 2.145
313 1 18.288 1.944 23.241 -0.002 0.000 -0.003 2.125
315 1 18.328 2.332 32.224 -0.006 -0.007 -0.001 2.416
317 1 18.356 2.116 41.967 -0.002 0.002 -0.001 2.089
320 1 13.752 1.988 19.922 0.000 0.000 0.000 2.162
321 1 17.064 0.459 19.618 0.000 0.000 0.000 2.209
322 1 14.073 2.014 29.404 0.001 0.004 0.001 2.180
324 2 13.949 1.761 38.086 -0.002 0.003 -0.001 1.685
328 3 12.549 3.936 19.387 0.000 0.000 0.000 -1.082
329 3 15.921 6.204 19.412 0.000 0.000 0.000 -1.080
330 3 12.924 3.649 29.206 -0.010 -0.003 0.001 -1.019
331 3 17.457 7.968 27.138 0.012 -0.004 0.008 -1.091
332 3 12.109 6.238 39.203 -0.005 0.002 -0.007 -1.066
333 3 15.897 5.189 37.539 -0.001 -0.003 0.004 -1.001
336 3 14.046 5.762 21.775 -0.000 -0.007 0.000 -1.083
337 3 17.022 4.672 21.743 -0.009 0.002 0.005 -1.105
338 3 14.846 7.568 28.914 -0.002 -0.006 0.012 -1.091
339 3 17.568 3.691 31.071 0.000 0.016 0.004 -1.220
340 3 13.605 4.984 41.215 0.002 0.014 -0.000 -1.250
341 3 16.894 3.302 40.948 0.004 -0.003 -0.007 -1.224
344 3 18.156 5.860 25.544 -0.007 -0.001 -0.002 -1.164
345 3 14.701 4.898 34.365 -0.010 -0.002 0.008 -1.040
346 3 18.480 5.970 35.153 0.017 -0.007 -0.000 -1.103
349 3 12.607 4.034 23.909 -0.001 0.013 0.007 -1.079
350 3 16.002 6.232 24.023 -0.005 -0.003 0.004 -1.056
351 3 14.779 4.252 25.338 -0.006 0.010 -0.008 -0.957
352 3 16.391 3.734 26.856 0.016 0.009 0.009 -1.018
353 3 13.520 5.738 36.368 -0.013 0.000 -0.004 -1.038
354 3 17.319 3.678 35.703 0.009 -0.003 0.002 -1.073
356 3 15.857 5.681 42.418 -0.005 0.010 -0.002 -1.268
361 3 14.476 5.987 31.448 -0.018 -0.005 -0.001 -1.191
362 3 16.938 5.500 33.173 0.002 -0.016 0.003 -1.078
363 3 15.037 3.722 19.639 0.000 0.000 0.000 -1.160
364 3 18.493 5.606 19.488 0.000 0.000 0.000 -1.130
365 3 15.161 3.940 30.068 -0.005 0.007 0.002 -1.142
366 3 18.510 6.138 29.811 -0.001 0.009 -0.009 -1.158
367 3 14.943 3.808 38.984 0.009 -0.004 -0.007 -1.103
368 3 17.678 5.576 39.736 -0.001 0.002 -0.005 -1.305
371 1 12.867 4.159 25.959 0.007 -0.002 -0.002 2.280
372 1 16.088 5.761 26.241 0.005 -0.002 0.002 2.279
373 1 13.115 3.876 35.333 0.000 0.002 0.001 2.146
374 1 16.435 5.748 35.323 0.002 -0.001 0.000 2.346
377 2 14.912 3.813 22.902 -0.001 0.004 -0.001 1.680
378 1 18.102 5.866 23.173 0.003 -0.002 0.003 2.237
379 1 15.227 4.215 32.301 -0.001 0.000 -0.005 2.147
380 1 18.590 5.739 31.969 0.004 -0.007 0.005 2.124
381 1 15.177 3.840 41.743 -0.002 0.004 0.005 2.263
382 1 18.363 5.856 41.595 -0.001 0.007 -0.000 2.263
385 1 13.797 5.702 19.676 0.000 0.000 0.000 2.143
386 1 17.074 4.184 19.822 0.000 0.000 0.000 2.093
387 1 13.926 5.646 29.289 -0.003 0.003 -0.005 2.225
388 1 17.186 4.044 29.087 -0.002 0.002 0.002 2.235
389 1 13.844 5.360 38.430 -0.003 -0.003 0.000 2.328
390 1 17.123 3.929 38.815 0.002 -0.004 0.001 2.309
394 3 22.553 2.319 19.102 0.000 0.000 0.000 -0.994
396 3 21.777 0.877 29.521 -0.007 -0.024 -0.011 -0.980
398 3 22.838 2.027 37.487 -0.006 0.007 -0.007 -1.071
401 3 20.466 2.353 22.551 -0.012 0.006 -0.003 -1.152
403 3 20.310 2.436 31.795 -0.001 -0.012 0.010 -1.228
405 3 19.707 2.826 40.414 0.003 -0.009 -0.003 -1.144
412 3 24.315 2.477 35.066 0.012 0.004 -0.007 -1.021
416 3 22.693 1.785 24.022 0.003 0.003 -0.001 -1.107
417 3 20.910 2.368 27.490 -0.014 -0.004 -0.011 -0.895
419 3 20.372 2.424 36.492 0.014 0.009 -0.002 -1.117
422 3 23.432 4.364 41.928 -0.009 -0.011 -0.014 -1.230
428 3 22.722 2.053 33.066 -0.001 -0.008 -0.012 -1.266
429 3 21.127 0.328 20.740 0.000 0.000 0.000 -1.010
430 3 23.675 2.371 21.455 0.012 0.001 -0.001 -1.071
432 3 24.583 2.128 29.697 -0.013 0.008 -0.009 -1.325
438 1 22.425 2.337 26.076 0.001 0.001 0.003 2.444
440 1 22.330 2.126 35.264 0.001 -0.005 0.002 2.258
443 1 21.182 0.464 22.943 -0.006 0.001 0.003 2.195
444 1 24.711 2.191 23.062 -0.001 0.004 0.001 2.132
446 1 24.539 2.081 32.035 0.001 -0.007 0.001 2.160
448 1 24.574 2.306 41.784 -0.002 -0.003 -0.005 2.270
451 2 20.178 2.057 19.185 0.000 0.000 0.000 1.653
452 1 23.654 0.697 20.057 0.000 0.000 0.000 2.185
453 1 20.270 2.151 29.463 -0.006 0.001 -0.002 2.207
455 1 20.127 2.258 38.479 0.001 0.005 0.006 2.237
459 3 22.396 6.231 19.569 0.000 0.000 0.000 -1.060
460 3 19.057 3.813 28.257 0.005 0.005 -0.004 -1.130
461 3 24.563 5.870 30.305 -0.003 -0.016 0.005 -1.193
462 3 18.920 4.167 38.119 -0.003 0.006 0.007 -1.095
463 3 21.982 6.290 37.897 -0.005 -0.011 -0.008 -1.082
466 3 20.145 5.380 22.197 -0.002 -0.002 0.025 -1.102
467 3 23.055 4.515 21.848 0.006 -0.004 0.014 -1.089
468 3 20.678 5.673 31.655 -0.002 0.006 0.002 -1.313
469 3 23.376 3.734 31.327 0.003 -0.004 0.001 -1.216
470 3 20.258 6.315 40.409 0.010 -0.001 0.003 -1.181
471 3 24.986 4.630 39.823 0.003 0.005 0.010 -0.999
474 3 21.302 3.901 25.264 0.004 0.008 0.001 -1.332
475 3 24.055 4.495 25.305 -0.007 0.001 -0.001 -1.172
476 3 21.656 3.801 34.515 0.009 -0.003 0.011 -1.174
477 3 24.919 5.854 34.462 0.009 -0.008 0.016 -1.249
480 3 18.832 3.965 23.953 0.001 -0.002 -0.004 -1.127
481 3 22.450 6.026 24.262 0.006 0.017 -0.011 -1.274
482 3 20.386 5.697 27.033 0.000 0.004 -0.004 -1.160
483 3 22.959 4.005 27.446 0.002 0.009 0.008 -1.151
484 3 20.475 5.724 36.176 -0.009 -0.015 -0.001 -1.287
485 3 23.579 4.275 36.178 0.011 -0.003 -0.011 -1.149
486 3 19.319 4.187 42.407 0.003 -0.015 -0.006 -1.206
487 3 21.123 5.802 42.359 0.009 -0.006 -0.009 -1.050
492 3 19.242 3.966 33.027 -0.004 0.012 -0.003 -1.232
493 3 22.386 5.756 33.369 -0.012 0.002 0.010 -1.110
494 3 21.183 4.279 19.663 0.000 0.000 0.000 -1.020
495 3 24.817 5.508 20.070 0.000 0.000 0.000 -1.065
496 3 21.522 4.002 29.846 -0.011 -0.005 -0.007 -1.179
498 3 21.480 3.990 39.164 -0.008 0.002 0.010 -1.066
499 3 24.316 6.351 38.551 -0.003 0.005 -0.004 -1.121
502 1 19.402 3.850 26.120 -0.002 0.006 -0.008 2.256
503 1 22.445 5.634 26.253 0.000 -0.005 0.005 2.311
504 1 19.509 4.096 35.152 0.006 -0.000 0.000 2.158
505 1 22.438 5.838 35.681 0.006 -0.003 -0.003 2.331
508 1 21.376 4.052 23.170 0.001 -0.001 -0.005 2.140
509 1 24.463 5.768 23.426 -0.000 -0.001 -0.000 2.258
510 1 21.576 4.071 32.283 -0.002 0.001 0.002 2.368
511 1 24.452 5.941 32.452 0.002 0.002 -0.008 2.369
512 1 21.400 4.000 41.259 0.003 0.004 0.002 2.159
513 1 24.557 5.757 41.690 0.000 0.001 -0.001 2.369
516 1 20.403 6.034 20.157 0.000 0.000 0.000 2.308
517 1 23.352 3.966 19.998 0.000 0.000 0.000 2.339
518 1 20.649 5.838 29.292 0.001 -0.000 0.002 2.209
519 1 23.672 3.893 29.360 0.002 0.002 0.003 2.260
520 1 19.988 6.097 38.456 0.003 -0.001 -0.001 2.223
521 1 23.632 3.937 38.377 -0.003 0.002 -0.003 2.140
524 3 25.592 0.122 19.242 0.000 0.000 0.000 -1.078
589 3 24.997 2.634 19.510 0.000 0.000 0.000 -1.022
2080 3 0.080 7.586 18.848 0.000 0.000 0.000 -1.101
2081 3 2.664 8.225 19.641 0.000 0.000 0.000 -0.940
2083 3 3.533 11.026 27.302 0.002 0.010 0.002 -1.133
2085 3 1.485 11.307 39.473 0.003 -0.011 -0.005 -1.104
2088 3 0.948 9.675 22.062 -0.002 0.006 0.001 -1.148
2089 3 4.083 8.049 22.170 -0.003 0.016 0.001 -1.075
2090 3 1.620 9.495 31.297 -0.004 0.003 0.001 -1.075
2091 3 4.309 7.032 31.445 0.010 0.006 0.010 -1.156
2092 3 1.027 9.555 41.400 -0.000 -0.008 0.012 -1.170
2093 3 5.282 5.586 39.099 0.001 -0.009 -0.007 -1.158
2096 3 2.286 7.524 26.038 -0.017 -0.006 0.004 -1.063
2097 3 5.233 9.385 25.205 -0.007 0.008 -0.001 -1.139
2098 3 3.051 7.467 34.414 -0.006 -0.008 -0.001 -1.103
2099 3 4.790 9.980 34.505 -0.010 0.005 0.016 -1.120
2103 3 3.128 9.047 24.060 0.006 0.004 -0.001 -1.086
2105 3 4.783 7.951 27.129 0.010 0.003 0.007 -1.076
2106 3 1.203 9.639 36.057 0.009 -0.010 -0.001 -1.202
2107 3 3.004 9.500 38.276 -0.004 -0.008 0.003 -1.219
2115 3 2.666 9.678 33.237 0.008 0.008 -0.002 -1.216
2116 3 1.883 7.109 20.988 0.000 0.000 0.000 -0.965
2117 3 5.332 9.411 19.736 0.000 0.000 0.000 -1.113
2118 3 2.641 8.424 28.209 -0.000 0.009 0.011 -1.098
2119 3 4.573 9.355 30.006 0.007 -0.005 -0.010 -1.137
2120 3 2.060 6.996 39.381 -0.004 0.001 0.012 -1.098
2121 3 5.575 9.613 39.436 0.004 0.006 0.011 -1.149
2125 1 3.174 9.459 26.204 -0.001 -0.002 -0.005 2.321
2127 1 3.130 9.375 35.337 -0.007 -0.003 0.005 2.357
2130 1 2.237 7.362 23.050 -0.000 -0.000 0.006 2.200
2131 1 5.431 9.442 23.110 0.001 -0.002 0.003 2.004
2132 1 2.243 7.658 32.394 -0.003 0.002 0.002 2.176
2133 2 5.331 9.089 32.368 -0.002 -0.002 -0.002 1.611
2134 1 2.198 7.830 41.382 0.006 -0.004 0.005 2.270
2135 1 5.486 9.429 41.435 -0.002 -0.000 -0.002 2.297
2138 1 0.977 9.496 19.852 0.000 0.000 0.000 2.165
2139 1 4.366 7.432 20.081 0.000 0.000 0.000 2.275
2140 1 1.019 9.172 29.233 0.002 -0.006 -0.002 2.202
2141 1 4.191 7.571 29.384 0.005 0.001 0.003 2.332
2142 1 0.810 9.565 38.190 0.001 0.001 0.002 2.247
2143 1 4.140 7.592 38.306 0.003 0.004 -0.001 2.182
2146 3 0.022 11.240 19.029 0.000 0.000 0.000 -1.045
2147 3 3.170 13.236 19.491 0.000 0.000 0.000 -1.031
2149 3 2.964 13.278 28.974 -0.012 -0.006 -0.000 -1.139
2151 3 3.178 13.018 38.323 0.012 -0.008 -0.003 -1.108
2154 3 0.934 13.174 21.943 0.003 -0.007 -0.014 -1.067
2155 3 3.746 10.679 22.043 0.005 0.013 -0.004 -1.123
2156 3 1.298 13.353 31.444 -0.011 -0.000 0.005 -1.212
2157 3 3.773 11.937 31.505 -0.007 0.006 -0.010 -1.188
2159 3 4.046 7.720 40.667 0.002 0.001 -0.012 -1.164
2162 3 1.700 10.480 25.336 -0.013 -0.003 -0.010 -1.148
2163 3 6.034 13.246 25.225 0.004 -0.007 -0.007 -1.131
2164 3 1.672 12.107 34.164 -0.015 0.008 0.007 -1.247
2165 3 5.236 13.268 35.452 0.010 0.007 -0.005 -1.210
2169 3 3.091 12.579 23.370 -0.012 -0.003 0.003 -1.213
2172 3 3.474 11.298 36.362 0.008 -0.003 -0.000 -1.195
2180 3 3.598 13.998 33.276 0.007 0.015 0.002 -1.067
2181 3 2.388 10.949 19.611 0.000 0.000 0.000 -1.067
2182 3 5.581 12.872 19.891 0.000 0.000 0.000 -1.154
2183 3 1.854 11.049 29.632 -0.009 0.011 -0.009 -1.107
2184 3 5.302 13.122 29.920 -0.007 0.000 -0.014 -1.199
2185 3 1.015 13.417 41.368 -0.007 0.001 0.006 -1.237
2186 3 5.678 13.232 39.383 0.013 -0.008 0.009 -1.076
2190 2 2.773 13.079 26.359 0.005 0.001 0.003 1.595
2192 1 2.996 13.098 35.320 0.002 -0.002 -0.005 2.235
2195 1 2.062 10.871 23.166 -0.001 -0.002 -0.001 2.320
2196 1 5.185 13.064 23.267 0.000 0.002 0.003 1.985
2197 1 2.055 11.258 32.318 -0.001 0.004 0.001 2.354
2198 1 5.218 13.284 32.182 0.001 0.000 -0.001 2.200
2199 1 2.020 11.373 41.477 -0.001 0.003 -0.000 2.286
2200 1 5.423 13.245 41.351 -0.000 0.006 0.001 2.301
2203 1 1.045 12.961 19.923 0.000 0.000 0.000 2.127
2204 1 4.396 11.329 20.041 0.000 0.000 0.000 2.090
2205 1 0.756 12.963 29.390 -0.003 -0.003 -0.007 2.221
2206 1 4.008 11.389 29.385 -0.001 0.001 0.001 2.286
2207 1 1.126 13.314 38.582 0.003 -0.004 0.003 2.314
2208 1 4.090 11.152 38.349 -0.001 0.001 -0.003 2.360
2211 3 6.518 7.309 19.536 0.000 0.000 0.000 -1.101
2212 3 9.572 9.336 18.992 0.000 0.000 0.000 -1.101
2213 3 6.486 7.623 29.060 -0.002 0.001 -0.001 -1.149
2214 3 9.330 9.748 29.431 -0.002 0.014 0.004 -1.077
2215 3 6.251 7.552 37.703 0.011 -0.003 -0.005 -1.275
2216 3 9.461 9.630 37.835 -0.002 -0.012 -0.005 -1.176
2219 3 7.661 9.248 22.190 0.003 -0.010 0.000 -1.115
2220 3 10.763 7.649 22.540 0.000 0.001 0.011 -1.099
2221 3 6.526 10.732 31.284 0.001 0.003 0.008 -0.944
2222 3 10.669 7.535 31.533 -0.011 0.001 0.000 -1.078
2223 3 7.513 9.381 41.513 0.003 0.007 -0.008 -1.169
2224 3 10.644 7.670 40.765 -0.009 -0.006 -0.007 -1.256
2227 3 8.744 7.654 25.041 0.001 -0.003 0.010 -1.217
2228 3 12.443 9.565 25.159 0.008 -0.004 0.000 -1.023
2229 3 7.840 7.407 34.391 0.002 -0.010 -0.002 -1.223
2230 3 11.335 10.329 35.465 0.009 0.013 -0.003 -0.876
2233 3 6.832 7.459 23.760 -0.003 -0.001 -0.001 -1.212
2234 3 9.955 9.593 23.833 0.001 -0.003 -0.005 -1.115
2235 3 7.761 9.090 26.615 0.004 -0.002 0.005 -1.022
2236 3 11.162 7.722 26.747 0.003 0.008 0.006 -1.053
2237 3 7.153 9.564 36.085 -0.008 0.005 0.015 -1.238
2238 3 10.267 7.579 35.445 0.003 -0.004 0.005 -1.261
2240 3 10.074 9.834 42.437 -0.001 -0.003 -0.004 -1.066
2245 3 7.677 5.963 31.881 0.005 0.009 -0.002 -1.194
2246 3 9.055 9.475 33.390 -0.004 0.003 -0.009 -1.190
2247 3 8.949 7.610 20.784 0.000 0.000 0.000 -1.293
2248 3 12.070 8.837 20.735 0.000 0.000 0.000 -0.971
2249 3 7.817 8.678 31.505 0.004 0.002 0.006 -1.178
2250 3 8.414 8.107 39.393 -0.011 -0.003 -0.005 -1.161
2251 3 11.756 9.786 39.572 0.011 -0.004 -0.002 -1.159
2254 1 6.519 7.569 25.701 -0.002 0.000 0.001 2.188
2255 1 9.685 9.400 25.779 -0.001 -0.003 0.002 2.226
2256 1 6.274 7.502 35.640 0.008 0.005 0.001 2.198
2257 1 9.384 9.403 35.428 0.003 -0.004 -0.001 2.166
2260 1 8.651 7.599 22.761 0.004 0.002 0.002 2.284
2261 1 11.919 9.387 22.886 0.009 -0.003 0.001 2.314
2262 1 8.835 7.464 32.561 -0.001 -0.001 0.001 2.248
2263 2 11.981 9.644 32.274 -0.006 -0.001 -0.000 1.685
2264 1 8.741 7.691 41.444 0.001 0.000 0.002 2.348
2265 1 11.959 9.163 41.501 -0.002 -0.003 -0.000 2.188
2268 1 7.585 9.207 19.958 0.000 0.000 0.000 2.092
2269 1 10.717 7.534 19.765 0.000 0.000 0.000 2.171
2270 1 7.204 9.511 29.691 -0.000 0.003 0.001 2.100
2271 2 10.518 7.638 29.092 -0.000 0.005 -0.001 1.677
2272 1 7.385 9.353 38.349 0.002 0.005 0.002 2.276
2273 1 10.612 7.764 38.397 0.005 -0.002 0.004 2.130
2276 3 7.643 11.249 20.014 0.000 0.000 0.000 -0.879
2277 3 11.348 13.113 19.059 0.000 0.000 0.000 -1.007
2278 3 5.933 10.805 28.522 -0.004 -0.002 0.002 -1.001
2279 3 10.001 13.171 28.779 -0.003 -0.011 0.003 -1.169
2280 3 5.924 11.484 37.622 -0.004 0.002 -0.000 -1.152
2281 3 8.106 14.643 39.434 -0.006 0.002 0.009 -1.168
2284 3 8.076 13.572 21.830 0.012 0.002 -0.005 -1.203
2285 3 10.686 10.503 21.366 0.000 0.000 0.000 -0.928
2286 3 6.575 12.032 33.319 -0.015 0.011 -0.018 -0.985
2287 3 8.570 11.906 30.406 -0.005 0.006 -0.020 -0.987
2288 3 7.549 12.852 41.271 -0.009 -0.011 0.000 -1.126
2289 3 10.338 11.712 40.291 0.006 0.005 0.003 -1.087
2292 3 9.156 11.434 25.643 0.008 0.001 -0.000 -0.970
2293 3 11.360 12.481 25.421 -0.001 0.001 -0.005 -1.089
2294 3 8.385 11.226 34.873 -0.010 -0.017 -0.012 -0.960
2295 3 11.867 13.016 34.742 0.012 -0.004 0.003 -1.096
2298 3 6.388 11.353 22.979 -0.019 0.002 -0.010 -1.069
2299 3 9.708 13.488 23.765 -0.005 -0.014 -0.011 -1.047
2300 3 8.035 13.059 27.548 0.012 -0.007 -0.002 -1.031
2301 3 10.497 10.429 27.239 0.001 -0.015 -0.010 -1.127
2302 3 7.599 13.136 36.266 -0.003 0.017 0.012 -1.023
2303 3 10.547 11.512 36.400 -0.004 0.005 0.015 -0.885
2304 3 5.593 11.368 42.313 -0.005 -0.001 -0.007 -1.055
2305 3 9.670 13.380 42.497 0.004 -0.013 0.009 -1.066
2310 3 10.519 11.523 32.155 -0.005 0.004 -0.001 -1.009
2311 3 8.887 11.933 18.888 0.000 0.000 0.000 -0.842
2312 3 11.404 13.368 21.411 0.000 0.000 0.000 -1.136
2313 3 7.521 13.456 31.561 -0.001 -0.006 -0.000 -1.027
2314 3 12.002 13.769 30.509 -0.003 0.002 -0.000 -1.095
2315 3 7.789 11.102 39.371 -0.017 -0.010 0.003 -1.058
2316 3 12.235 13.253 38.566 -0.001 -0.011 0.004 -1.184
2318 2 6.756 11.325 26.461 -0.000 0.004 0.003 1.703
2319 1 9.798 13.291 26.490 -0.005 -0.000 -0.004 2.316
2320 1 6.136 11.334 35.510 0.003 -0.003 -0.002 2.213
2321 1 9.551 13.220 35.316 0.004 0.002 0.004 2.258
2324 2 8.893 11.388 22.778 0.002 -0.005 0.004 1.757
2325 1 11.745 13.376 23.250 0.004 0.002 0.004 2.275
2326 1 8.414 11.168 32.412 0.005 -0.001 0.007 2.305
2327 1 11.585 13.242 32.607 0.001 -0.003 0.006 2.226
2328 1 8.730 11.236 41.481 -0.002 0.011 -0.001 2.294
2329 2 11.938 13.208 41.469 -0.002 -0.007 -0.005 1.704
2332 1 7.668 13.405 19.823 0.000 0.000 0.000 2.177
2333 1 10.750 11.063 19.356 0.000 0.000 0.000 2.091
2334 1 7.381 13.508 29.541 0.001 -0.003 0.005 2.206
2335 1 10.575 11.324 29.230 -0.000 0.006 -0.004 2.312
2336 1 7.555 13.003 38.429 0.003 0.002 0.000 2.329
2337 1 11.043 11.290 38.376 0.002 0.003 -0.002 2.187
2340 3 12.823 7.387 18.914 0.000 0.000 0.000 -1.122
2341 3 16.304 9.456 19.283 0.000 0.000 0.000 -1.102
2342 3 13.725 5.707 27.003 -0.004 -0.011 0.006 -1.207
2343 3 15.843 9.766 28.625 0.006 -0.003 -0.001 -1.290
2344 3 10.506 3.820 36.046 0.006 -0.003 -0.007 -1.158
2345 3 16.017 8.997 37.706 0.006 -0.003 -0.007 -1.185
2348 3 14.069 9.147 22.989 -0.014 0.000 0.002 -1.031
2349 3 17.791 7.097 21.638 -0.000 -0.001 -0.005 -0.968
2350 3 14.296 9.430 31.280 0.002 0.008 -0.005 -1.107
2351 3 16.853 7.849 31.457 0.008 0.002 -0.007 -1.186
2352 3 14.220 9.092 40.890 -0.010 -0.001 0.008 -1.270
2353 3 16.997 7.693 41.015 0.006 0.002 0.000 -1.195
2356 3 15.201 7.628 25.900 -0.002 0.006 0.005 -1.063
2357 3 17.147 9.793 24.918 0.007 0.006 -0.008 -0.933
2358 3 15.726 7.540 34.584 -0.007 -0.004 -0.001 -1.074
2359 3 18.031 8.656 34.524 0.016 0.007 -0.002 -0.990
2362 3 13.043 7.045 23.566 0.000 0.003 -0.010 -1.119
2363 3 16.869 8.386 22.524 0.008 0.008 -0.006 -0.874
2364 3 13.378 9.390 27.230 0.007 -0.004 0.001 -1.137
2365 3 19.735 7.959 28.251 -0.002 0.004 -0.003 -1.161
2366 3 14.003 9.639 35.176 -0.009 0.003 0.010 -1.043
2367 3 16.931 7.310 36.590 0.000 -0.000 -0.003 -0.907
2368 3 12.839 7.559 42.461 -0.004 -0.007 -0.013 -1.188
2369 3 16.123 10.268 43.059 0.004 -0.008 -0.002 -1.019
2374 3 13.109 7.504 32.892 -0.002 0.001 0.003 -1.126
2375 3 15.863 9.557 33.344 -0.005 -0.007 -0.004 -1.148
2376 3 14.852 7.894 20.624 0.000 0.000 0.000 -1.121
2377 3 18.307 9.701 20.947 0.000 0.000 0.000 -0.925
2378 3 16.232 5.781 28.382 -0.007 -0.005 0.000 -1.206
2379 3 18.082 9.424 29.300 0.011 0.007 -0.007 -1.104
2380 3 14.850 6.859 39.157 -0.013 -0.006 -0.010 -1.320
2381 3 17.936 9.983 40.055 0.007 0.013 0.003 -1.179
2384 1 13.104 7.535 25.880 0.001 0.000 -0.002 2.178
2385 1 16.027 9.679 26.589 -0.005 0.000 -0.003 2.196
2386 2 12.719 7.737 35.493 0.000 -0.005 -0.006 1.639
2387 1 16.195 9.355 35.574 0.000 -0.002 0.003 2.248
2390 1 14.874 7.378 22.598 -0.002 0.001 0.001 2.324
2391 1 18.416 9.423 23.282 0.001 -0.003 -0.003 2.196
2392 1 15.127 7.752 32.513 0.005 -0.002 0.003 2.250
2393 1 18.073 9.413 32.667 0.003 0.003 0.004 2.229
2394 1 14.903 7.164 41.527 -0.000 -0.004 0.002 2.073
2395 1 18.170 9.422 41.824 -0.001 0.004 -0.002 2.264
2398 1 14.056 9.230 19.403 0.000 0.000 0.000 2.055
2399 1 17.262 7.698 19.899 0.000 0.000 0.000 2.255
2400 1 13.915 9.623 29.274 -0.001 -0.002 -0.001 2.139
2401 1 16.920 7.726 29.180 -0.002 0.006 0.002 2.285
2402 1 13.976 9.362 38.723 -0.000 0.003 -0.001 2.159
2403 1 16.743 7.423 38.835 0.005 -0.002 0.006 2.252
2406 3 12.752 10.831 18.766 0.000 0.000 0.000 -1.092
2407 3 16.058 13.344 19.325 0.000 0.000 0.000 -1.059
2408 3 11.947 10.179 29.808 -0.012 0.001 0.010 -1.184
2409 3 15.168 13.514 28.261 0.009 -0.000 -0.002 -1.139
2410 3 13.113 10.761 37.748 0.003 0.010 0.013 -1.295
2411 3 15.887 12.444 37.541 0.004 -0.001 0.002 -1.357
2414 3 13.821 13.667 22.860 0.003 -0.000 -0.010 -0.984
2415 3 17.057 11.630 22.023 0.004 -0.017 0.001 -1.061
2416 3 14.816 11.639 30.271 0.014 -0.008 0.002 -1.187
2417 3 17.001 10.998 31.408 0.010 0.009 -0.010 -1.176
2418 3 14.173 12.784 40.500 0.012 -0.007 -0.001 -1.087
2422 3 14.824 11.087 25.587 -0.000 0.004 -0.009 -1.088
2423 3 17.866 13.187 26.194 0.001 -0.005 -0.008 -0.953
2424 3 14.940 11.728 34.516 0.012 -0.005 -0.004 -1.086
2425 3 18.275 13.357 35.094 0.010 -0.007 -0.003 -1.020
2428 3 12.399 11.276 23.229 -0.009 -0.003 -0.001 -1.020
2429 3 16.343 13.342 23.960 0.001 -0.013 0.000 -0.990
2430 3 13.657 13.268 26.594 -0.001 0.002 0.015 -1.036
2431 3 16.781 11.640 27.482 -0.000 0.001 0.010 -1.196
2432 3 13.735 13.441 36.455 -0.003 -0.003 0.004 -1.131
2433 3 17.175 11.157 35.616 -0.001 -0.003 0.002 -1.210
2434 3 12.753 11.024 42.420 -0.002 -0.010 -0.008 -1.148
2435 3 16.345 12.948 41.642 0.004 -0.010 0.007 -1.177
2440 3 13.030 11.838 32.787 0.002 0.004 0.014 -1.077
2441 3 16.112 13.337 32.836 0.006 -0.011 -0.009 -1.069
2442 3 14.975 11.137 19.932 0.000 0.000 0.000 -0.970
2443 3 18.140 13.485 20.932 0.000 0.000 0.000 -1.094
2444 3 12.464 12.091 28.419 -0.005 -0.012 0.002 -1.094
2445 3 17.529 13.303 30.342 -0.001 0.009 -0.007 -1.070
2446 3 15.473 10.782 39.531 -0.010 -0.007 0.003 -1.185
2447 3 18.211 13.082 39.323 0.012 -0.006 0.007 -1.369
2450 1 12.614 11.202 26.424 -0.003 -0.001 0.001 2.209
2451 1 15.722 13.094 26.373 0.002 -0.000 0.005 2.252
2452 1 13.155 11.465 35.593 0.004 0.002 -0.004 2.191
2453 1 16.145 13.108 35.659 0.001 -0.003 0.002 2.402
2456 2 14.835 11.435 23.064 0.003 -0.002 -0.003 1.735
2457 1 18.283 13.014 23.176 -0.002 -0.001 0.001 2.310
2458 1 15.194 11.364 32.420 -0.003 -0.003 0.002 2.258
2459 1 18.179 13.485 32.417 0.006 0.002 0.003 2.170
2460 1 14.882 11.140 41.572 -0.004 -0.004 0.002 2.138
2461 1 18.282 13.112 41.328 0.003 -0.001 0.003 2.231
2464 2 13.797 12.979 18.821 0.000 0.000 0.000 1.658
2465 1 17.035 11.422 20.031 0.000 0.000 0.000 2.170
2466 1 13.835 13.302 29.581 0.006 -0.004 -0.006 2.322
2467 1 17.043 11.285 29.491 0.001 0.006 0.001 2.376
2468 1 14.234 13.025 38.497 0.005 0.004 -0.005 2.243
2469 1 17.227 11.258 38.548 0.000 -0.001 -0.006 2.322
2472 3 19.397 7.899 19.465 0.000 0.000 0.000 -1.035
2473 3 22.611 9.435 19.762 0.000 0.000 0.000 -1.053
2474 3 22.414 6.480 28.573 -0.009 0.018 -0.005 -1.090
2475 3 20.642 10.604 27.479 0.001 -0.015 0.003 -0.983
2476 3 18.764 7.596 38.256 -0.000 -0.006 -0.007 -1.159
2477 3 22.556 9.746 37.757 -0.008 -0.011 0.005 -1.119
2480 3 20.294 10.066 22.430 -0.006 0.008 -0.016 -1.128
2481 3 23.777 7.140 22.100 -0.014 -0.008 -0.018 -1.102
2482 3 19.815 9.731 31.504 0.008 -0.002 -0.008 -1.126
2483 3 22.239 9.323 33.171 0.001 -0.007 -0.014 -1.283
2484 3 20.133 9.661 41.012 0.008 0.009 0.015 -1.146
2485 3 23.158 10.395 40.741 0.003 -0.001 -0.016 -1.113
2488 3 21.176 8.243 25.242 -0.002 0.000 -0.014 -1.108
2490 3 21.460 7.435 34.715 0.014 0.004 -0.003 -1.245
2494 3 19.584 7.508 23.561 0.001 0.003 0.013 -1.045
2495 3 22.867 9.504 23.144 -0.007 -0.000 0.005 -1.176
2496 3 19.008 9.559 25.704 0.004 0.003 0.009 -0.973
2497 3 23.440 7.404 26.473 0.001 -0.002 0.000 -1.131
2498 3 20.391 8.598 37.028 0.003 -0.012 -0.005 -1.141
2499 3 23.448 7.638 36.063 0.009 0.003 -0.012 -1.272
2501 3 21.928 9.322 42.715 -0.004 -0.009 0.000 -1.019
2506 3 19.366 7.539 33.140 -0.000 -0.006 0.003 -1.009
2507 3 20.205 9.488 34.993 0.006 -0.001 -0.003 -1.048
2508 3 21.180 7.624 21.207 0.000 0.000 0.000 -1.049
2509 3 24.830 9.960 21.066 0.000 0.000 0.000 -1.166
2510 3 21.151 7.832 30.482 -0.007 -0.014 0.016 -1.012
2511 3 22.690 9.104 28.394 -0.008 0.003 0.008 -1.244
2512 3 21.549 8.473 39.567 0.006 -0.014 0.009 -1.183
2513 3 24.693 8.943 39.599 0.005 -0.005 0.001 -1.058
2516 1 19.322 7.634 26.375 0.002 -0.003 0.001 2.252