ITEM: TIMESTEP
90000
ITEM: NUMBER OF ATOMS
37374
ITEM: BOX BOUNDS pp pp pp
0.000000 102.779942
0.000000 118.660062
0.000000 130.735200
ITEM: ATOMS id type x y z vx vy vz q
2 3 3.194 2.308 19.117 0.000 0.000 0.000 -1.059
4 3 3.170 2.005 29.356 -0.003 -0.001 -0.010 -1.130
6 3 2.868 1.271 37.175 0.008 0.004 -0.004 -1.162
9 3 0.977 2.175 21.840 0.004 -0.008 -0.010 -1.019
13 3 2.013 1.548 40.188 -0.007 -0.014 -0.000 -1.089
18 3 5.441 2.340 26.095 -0.006 0.006 -0.009 -1.065
20 3 4.961 2.079 35.155 0.003 0.003 0.005 -1.262
24 3 2.660 1.975 23.701 -0.014 -0.015 0.005 -1.193
30 3 3.274 2.289 42.765 -0.003 -0.005 0.007 -1.062
36 3 3.024 1.692 33.364 -0.006 -0.010 0.005 -1.235
37 3 1.881 0.228 19.742 0.000 0.000 0.000 -1.176
38 3 5.513 1.819 19.848 0.000 0.000 0.000 -1.093
40 3 5.582 2.346 30.259 0.012 -0.013 -0.005 -1.150
46 2 3.149 2.191 26.232 -0.005 0.000 -0.001 1.666
48 1 2.975 2.134 35.316 -0.003 -0.000 0.002 2.363
52 1 5.219 1.726 22.804 0.001 -0.003 0.002 2.056
54 1 5.063 2.214 32.677 -0.003 -0.004 0.002 1.974
56 1 5.025 1.853 41.652 0.001 0.003 -0.000 2.269
59 1 1.108 2.215 19.775 0.000 0.000 0.000 2.216
60 1 4.018 0.309 19.738 0.000 0.000 0.000 2.237
61 1 0.879 1.964 29.399 -0.001 0.001 -0.006 2.274
63 1 1.128 2.208 38.260 0.002 0.009 0.001 2.104
67 3 0.086 4.021 19.084 0.000 0.000 0.000 -1.086
68 3 3.421 5.669 19.058 0.000 0.000 0.000 -1.073
70 3 2.786 5.343 28.311 -0.015 0.003 0.005 -1.137
72 3 2.628 6.550 37.534 -0.002 0.003 -0.010 -1.019
76 3 3.877 3.214 21.783 0.003 -0.002 -0.004 -1.000
77 3 1.202 5.817 32.048 0.003 -0.001 -0.002 -1.074
78 3 3.957 4.019 32.499 0.007 0.005 0.000 -1.162
80 3 4.333 4.237 40.779 -0.012 0.008 -0.006 -0.962
83 3 2.012 4.204 26.132 0.016 0.004 0.025 -1.011
84 3 3.499 5.110 23.341 0.002 0.013 -0.007 -0.950
85 3 2.099 3.865 34.550 0.006 0.000 -0.005 -1.122
86 3 1.897 7.907 35.280 0.010 -0.001 0.005 -1.031
90 3 2.446 6.156 24.614 0.012 0.004 -0.002 -0.919
92 3 5.160 4.186 27.887 0.008 0.010 0.006 -1.160
94 3 4.168 4.070 36.559 0.004 0.001 0.013 -1.219
96 3 3.332 6.316 42.768 -0.007 0.013 -0.001 -1.179
102 3 3.348 6.416 33.593 -0.007 -0.004 0.001 -1.015
103 3 1.960 4.014 20.727 0.000 0.000 0.000 -0.984
104 3 5.058 5.763 20.991 0.000 0.000 0.000 -1.069
105 3 2.328 4.227 30.280 -0.012 0.015 -0.001 -0.989
106 3 5.357 5.099 30.697 -0.004 -0.008 -0.008 -1.085
107 3 2.301 4.196 38.924 0.013 0.003 -0.007 -1.186
108 3 6.479 3.488 37.965 0.002 -0.012 0.004 -0.981
112 1 3.240 5.883 26.375 -0.003 0.001 -0.001 2.216
114 1 2.979 5.587 35.695 -0.004 -0.001 0.006 2.214
117 1 2.096 3.688 22.865 0.001 -0.002 0.002 2.492
118 1 5.373 5.698 23.319 0.001 -0.001 -0.000 2.243
119 1 1.920 3.817 32.330 -0.002 0.005 0.001 2.303
120 1 5.073 5.896 32.737 0.001 0.005 -0.005 2.257
121 2 2.008 3.640 41.290 -0.008 0.004 0.003 1.682
122 1 5.387 5.684 42.102 -0.005 -0.006 -0.001 2.173
125 1 1.243 5.880 19.517 0.000 0.000 0.000 2.122
126 1 4.463 3.941 19.823 0.000 0.000 0.000 2.147
127 1 1.195 5.943 29.075 -0.004 0.000 0.003 2.329
128 1 4.255 3.772 29.546 -0.002 -0.002 0.000 2.289
129 1 0.891 5.741 38.658 0.006 0.005 -0.002 2.192
130 1 4.368 3.759 38.713 0.001 -0.002 0.003 2.286
134 3 9.828 2.071 19.444 0.000 0.000 0.000 -1.071
138 3 9.220 4.336 34.399 0.008 -0.006 -0.005 -1.122
141 3 7.314 1.467 22.118 -0.019 0.006 0.002 -1.226
143 3 7.935 2.441 31.203 -0.006 0.000 0.003 -1.040
144 3 11.525 0.433 31.104 0.004 0.006 -0.013 -1.072
145 3 6.805 1.028 40.416 0.003 -0.006 -0.005 -1.192
150 3 11.537 2.094 25.160 -0.008 0.005 0.006 -1.269
152 3 12.536 1.943 34.352 -0.009 0.004 0.007 -1.302
156 3 9.565 2.103 23.621 -0.003 -0.000 0.008 -1.336
157 3 9.575 1.645 29.503 0.010 -0.006 -0.001 -1.142
159 3 7.415 2.513 35.657 0.011 0.001 -0.007 -1.186
162 3 9.148 1.758 41.285 -0.002 0.002 0.007 -1.134
168 3 9.926 2.181 33.376 -0.005 -0.002 -0.001 -1.095
169 3 8.337 0.112 19.404 0.000 0.000 0.000 -1.115
170 3 11.991 2.067 20.912 0.000 0.000 0.000 -1.044
173 3 11.091 2.325 38.287 -0.008 0.003 -0.008 -1.123
177 1 9.569 2.044 26.013 -0.003 -0.002 -0.001 2.233
179 1 9.616 2.403 35.601 -0.002 -0.002 -0.002 2.039
183 1 11.352 1.907 23.029 -0.006 -0.003 -0.003 2.311
185 1 11.870 2.139 32.511 -0.001 -0.001 0.002 2.078
187 2 11.694 2.037 41.427 -0.000 0.005 0.003 1.682
190 1 7.618 2.008 20.016 0.000 0.000 0.000 2.177
192 1 7.569 1.816 29.275 0.002 0.001 -0.002 2.317
194 1 7.521 1.869 38.864 -0.002 -0.001 -0.002 2.299
198 3 6.608 4.036 19.356 0.000 0.000 0.000 -1.073
199 3 9.667 5.592 19.337 0.000 0.000 0.000 -1.136
200 3 8.009 2.063 27.325 0.003 -0.004 -0.004 -1.088
201 3 7.606 5.895 27.024 -0.004 -0.021 -0.004 -1.182
202 3 9.147 2.105 37.641 -0.003 -0.007 0.004 -1.143
203 3 9.138 5.578 38.098 0.010 -0.011 0.006 -1.143
206 3 7.182 6.034 22.393 -0.001 -0.017 -0.007 -1.198
207 3 10.755 3.916 22.113 -0.002 0.006 -0.005 -1.166
208 3 7.871 5.374 31.714 0.001 0.003 -0.009 -1.205
209 3 10.375 3.732 31.777 -0.014 0.002 0.002 -1.098
210 3 7.083 5.674 41.099 0.002 0.017 -0.006 -1.172
211 3 10.840 3.997 40.450 0.009 0.004 -0.008 -1.099
214 3 8.114 3.810 25.225 -0.001 -0.015 0.000 -1.158
215 3 11.677 6.060 25.449 -0.003 0.003 0.008 -1.087
216 3 5.353 5.752 35.017 -0.008 -0.004 -0.003 -1.252
217 3 13.075 4.193 33.049 -0.002 0.011 0.000 -1.253
220 3 5.995 3.604 23.267 -0.003 0.019 -0.002 -1.064
221 3 9.366 5.231 23.661 -0.001 0.008 0.011 -1.106
222 3 5.349 5.178 25.411 0.001 0.006 -0.001 -1.143
223 3 10.379 3.999 26.610 0.009 0.008 0.003 -1.195
224 3 7.606 5.645 35.974 0.006 -0.006 -0.002 -1.080
225 3 12.786 4.487 37.250 -0.002 -0.010 0.005 -1.115
227 3 9.308 5.554 42.243 0.004 -0.001 0.001 -0.993
231 3 6.522 3.897 33.339 -0.001 0.001 0.013 -1.156
232 3 10.546 6.339 33.601 -0.004 0.005 0.003 -1.139
233 3 8.427 3.647 20.952 0.000 0.000 0.000 -1.272
234 3 11.762 5.978 20.872 0.000 0.000 0.000 -1.067
235 3 7.600 4.020 28.635 -0.008 -0.014 0.010 -1.095
236 3 12.276 5.794 30.138 0.021 0.005 0.002 -1.083
237 3 7.654 3.659 39.744 -0.002 -0.012 -0.001 -1.167
238 3 13.780 7.800 37.869 -0.008 -0.002 0.001 -1.019
241 1 6.542 4.006 26.609 0.000 -0.002 -0.001 2.381
242 1 9.442 5.793 25.779 -0.000 -0.008 0.000 2.153
243 1 6.229 4.128 35.631 -0.002 0.003 -0.002 2.297
244 1 9.643 5.880 35.517 0.003 -0.002 0.002 2.201
247 1 8.361 3.600 23.074 -0.003 0.009 0.005 2.242
248 1 11.632 5.612 23.024 -0.005 0.002 0.002 2.287
249 1 8.407 3.779 32.619 0.004 0.002 0.003 2.337
250 1 11.939 5.791 32.278 -0.001 0.002 -0.001 2.298
251 1 8.208 3.591 41.571 0.004 -0.005 -0.005 2.176
252 1 11.840 5.543 41.428 -0.004 -0.000 0.005 2.168
255 1 7.677 5.633 20.123 0.000 0.000 0.000 2.104
256 1 10.605 3.818 20.133 0.000 0.000 0.000 2.248
257 1 7.327 5.716 29.684 0.006 -0.004 0.002 2.173
258 2 10.801 3.829 29.527 -0.002 -0.006 -0.001 1.589
259 1 7.268 5.846 39.066 -0.006 -0.001 -0.002 2.232
260 1 10.702 4.172 38.336 -0.002 -0.001 0.003 2.129
263 3 12.537 0.171 19.265 0.000 0.000 0.000 -1.024
264 3 17.790 2.402 19.135 0.000 0.000 0.000 -1.143
266 3 16.012 2.070 28.080 -0.003 0.008 0.000 -1.212
270 3 14.342 1.838 21.891 -0.016 -0.003 0.009 -1.073
272 3 13.748 2.135 31.213 0.008 0.007 0.004 -1.265
274 3 14.635 2.026 40.548 0.019 0.006 -0.009 -1.006
279 3 19.274 2.258 25.059 0.000 0.015 0.003 -1.017
281 3 18.376 1.983 34.540 0.001 -0.008 -0.013 -1.211
285 3 16.727 2.620 24.298 0.002 0.004 0.001 -1.142
286 3 13.966 2.216 26.245 -0.011 0.014 0.004 -1.145
288 3 14.219 2.065 35.949 0.013 0.006 0.004 -1.126
291 3 16.393 1.636 42.383 0.002 -0.007 -0.006 -1.224
297 3 16.209 1.804 32.637 0.002 0.001 -0.002 -1.301
298 3 15.041 0.456 19.380 0.000 0.000 0.000 -1.210
299 3 17.771 1.182 21.423 0.000 0.000 0.000 -0.873
301 3 18.580 2.221 29.394 0.007 0.006 -0.014 -1.087
303 3 16.819 1.880 38.427 0.006 -0.007 0.003 -1.044
307 1 15.925 1.879 26.020 -0.000 0.004 0.005 2.222
309 1 16.060 1.938 34.938 0.002 0.006 -0.005 2.157
313 1 18.362 2.402 23.091 0.003 0.000 0.002 2.174
315 1 18.289 1.635 32.317 -0.005 -0.008 0.004 2.121
317 1 18.317 2.130 41.796 -0.000 -0.001 0.002 2.226
320 1 13.752 1.988 19.922 0.000 0.000 0.000 2.182
321 1 17.064 0.459 19.618 0.000 0.000 0.000 2.165
322 1 14.001 2.150 29.102 0.004 0.006 -0.003 2.276
324 2 14.467 1.975 38.229 0.006 -0.000 -0.007 1.691
328 3 12.549 3.936 19.387 0.000 0.000 0.000 -1.066
329 3 15.921 6.204 19.412 0.000 0.000 0.000 -1.094
330 3 12.622 3.459 28.346 0.004 -0.004 0.000 -1.095
331 3 17.268 8.100 26.890 -0.019 0.008 -0.003 -1.091
332 3 11.934 5.909 39.042 -0.002 0.003 -0.006 -1.088
333 3 15.829 5.985 37.266 0.008 -0.008 0.004 -1.080
336 3 14.177 5.465 21.643 0.004 0.013 -0.007 -1.084
337 3 17.505 3.960 21.901 0.012 0.013 -0.004 -1.088
338 3 14.261 7.823 30.139 0.004 -0.009 0.005 -1.142
339 3 16.749 4.278 31.201 -0.008 0.007 -0.005 -1.080
340 3 13.996 5.397 40.768 -0.012 0.001 0.007 -1.097
341 3 19.804 2.660 40.304 0.006 0.006 -0.002 -0.970
344 3 18.298 5.937 25.906 0.017 0.010 0.004 -1.159
345 3 15.555 3.772 34.079 -0.022 0.000 0.007 -1.238
346 3 18.399 5.444 34.823 -0.003 0.008 -0.000 -1.119
349 3 12.534 4.140 24.047 0.003 0.005 -0.003 -1.154
350 3 16.042 5.665 23.898 -0.005 -0.004 -0.002 -1.209
351 3 14.049 5.088 26.799 0.004 0.009 -0.007 -1.000
352 3 17.174 3.921 26.598 -0.005 0.013 0.009 -1.296
353 3 14.128 5.509 35.128 -0.003 0.013 -0.011 -1.000
354 3 17.144 3.890 36.322 -0.008 -0.005 0.000 -1.131
356 3 16.373 5.873 42.077 0.015 0.009 -0.006 -1.218
361 3 14.001 5.785 31.705 0.000 -0.010 -0.015 -1.021
362 3 16.183 6.372 33.265 0.000 -0.002 -0.004 -1.095
363 3 15.037 3.722 19.639 0.000 0.000 0.000 -1.124
364 3 18.493 5.606 19.488 0.000 0.000 0.000 -1.123
365 3 14.932 3.719 29.693 0.000 -0.007 -0.008 -1.279
366 3 18.744 4.635 28.636 0.008 0.002 -0.004 -1.092
367 3 15.471 4.255 38.543 0.001 -0.004 0.006 -1.031
368 3 20.929 6.138 40.741 0.011 -0.003 0.011 -1.037
371 1 12.413 3.845 26.114 0.002 0.002 -0.003 2.230
372 1 16.094 5.558 26.192 0.002 0.001 -0.002 2.080
373 1 13.042 3.645 35.256 -0.001 0.000 -0.002 2.213
374 1 16.174 5.486 35.222 0.003 -0.008 -0.000 2.317
377 2 14.807 3.723 23.165 -0.005 0.006 -0.003 1.642
378 1 18.016 5.918 23.402 0.001 0.004 -0.000 2.178
379 1 14.886 3.734 32.148 0.003 -0.001 0.002 2.228
380 1 17.962 5.728 32.165 -0.004 -0.001 0.003 2.193
381 1 15.310 3.900 41.505 -0.002 -0.002 -0.002 2.166
382 1 18.269 5.823 41.556 0.002 0.000 -0.001 2.357
385 1 13.797 5.702 19.676 0.000 0.000 0.000 2.168
386 1 17.074 4.184 19.822 0.000 0.000 0.000 2.073
387 1 14.117 5.857 29.217 0.000 -0.006 -0.002 2.134
388 1 17.021 3.745 28.954 0.000 0.000 0.001 2.134
389 1 13.941 5.717 38.447 0.005 -0.003 0.001 2.227
390 1 17.478 3.733 38.533 -0.001 0.001 -0.001 2.324
394 3 22.553 2.319 19.102 0.000 0.000 0.000 -1.000
398 3 24.411 2.695 39.936 0.003 -0.004 -0.002 -1.041
401 3 20.478 2.234 22.564 0.002 0.009 0.005 -1.193
403 3 20.126 2.108 31.223 0.017 0.010 0.003 -1.107
405 3 19.218 4.107 42.162 -0.007 0.009 -0.019 -1.191
412 3 22.928 3.564 36.345 0.006 0.003 -0.006 -1.095
416 3 22.893 1.661 24.074 -0.019 -0.003 0.007 -1.142
417 3 22.545 1.712 28.499 0.006 0.004 0.002 -1.211
419 3 20.592 1.763 36.480 -0.001 -0.003 0.000 -1.262
422 3 23.208 4.577 40.816 0.008 -0.010 -0.003 -1.077
428 3 21.724 1.527 33.186 0.013 -0.010 0.011 -1.179
429 3 21.127 0.328 20.740 0.000 0.000 0.000 -1.074
430 3 23.918 2.509 21.487 -0.005 -0.004 0.006 -1.123
432 3 24.533 2.111 29.893 -0.005 0.007 -0.007 -1.180
438 1 22.606 2.015 26.392 0.001 -0.004 0.003 2.324
440 1 22.367 2.054 35.140 -0.004 -0.001 -0.002 2.170
443 1 21.465 0.460 22.894 0.002 -0.001 -0.004 2.325
444 1 24.531 1.947 23.271 -0.001 -0.003 0.002 2.483
446 1 24.402 1.665 31.959 -0.003 -0.005 0.003 2.282
448 1 24.492 2.333 42.041 -0.006 0.004 -0.001 2.358
451 2 20.178 2.057 19.185 0.000 0.000 0.000 1.652
452 1 23.654 0.697 20.057 0.000 0.000 0.000 2.096
453 1 20.460 1.819 29.250 -0.002 -0.001 0.003 2.418
455 1 20.631 1.738 38.473 0.001 -0.003 0.004 2.287
459 3 22.396 6.231 19.569 0.000 0.000 0.000 -1.047
460 3 20.579 2.730 27.149 -0.001 -0.006 -0.010 -0.933
461 3 24.597 5.234 30.064 -0.002 -0.008 0.008 -1.240
462 3 19.178 3.114 37.910 -0.009 0.000 -0.012 -1.163
463 3 22.351 5.813 37.656 0.007 0.016 0.006 -1.218
466 3 20.124 5.424 22.198 0.007 0.012 -0.008 -1.032
467 3 22.862 4.843 21.935 0.012 -0.012 -0.002 -1.057
468 3 21.021 5.618 31.569 0.001 -0.006 0.002 -1.011
469 3 23.177 3.576 31.521 -0.003 -0.011 0.004 -1.185
471 3 24.946 5.513 39.007 0.007 0.001 0.001 -1.050
474 3 21.994 3.669 24.968 -0.005 -0.011 0.002 -1.096
475 3 24.772 5.766 25.174 0.009 0.004 0.007 -1.313
476 3 21.063 4.072 34.481 0.007 -0.006 -0.001 -1.343
480 3 19.462 4.370 23.946 -0.005 -0.003 -0.003 -1.133
481 3 22.470 5.993 24.035 -0.007 0.002 -0.001 -1.089
482 3 20.577 5.691 26.307 0.002 -0.001 -0.005 -1.031
483 3 23.252 3.997 27.319 0.001 -0.003 -0.001 -1.222
484 3 20.085 5.729 36.343 0.004 0.001 0.012 -1.229
485 3 22.975 1.914 37.977 0.006 0.011 -0.007 -1.101
486 3 17.147 3.797 40.702 0.010 0.014 -0.009 -1.155
487 3 22.946 6.358 42.863 0.004 -0.003 -0.015 -1.202
492 3 18.971 3.822 32.508 0.001 -0.005 -0.003 -1.080
493 3 22.073 5.948 33.430 -0.001 0.003 -0.000 -1.074
494 3 21.183 4.279 19.663 0.000 0.000 0.000 -1.021
495 3 24.817 5.508 20.070 0.000 0.000 0.000 -1.114
496 3 21.219 3.854 29.492 -0.005 0.003 -0.001 -1.087
498 3 21.325 4.329 38.967 0.017 0.009 -0.013 -1.063
502 1 19.220 4.053 26.282 0.001 0.003 0.004 2.306
503 1 22.636 5.659 26.142 0.001 0.008 -0.001 2.217
504 1 19.303 3.622 35.590 0.006 0.003 0.000 2.122
505 1 22.224 5.551 35.413 0.001 -0.001 -0.002 2.344
508 1 21.285 4.077 23.234 0.002 -0.002 0.000 2.287
509 1 24.704 5.528 23.159 0.000 0.004 0.001 2.182
510 1 21.001 3.735 32.498 -0.004 -0.002 0.002 2.191
511 1 24.079 5.526 32.338 -0.008 -0.007 -0.006 2.186
512 1 21.313 4.033 41.325 0.003 0.003 -0.004 2.238
513 1 24.568 5.979 41.542 -0.000 -0.002 -0.001 2.309
516 1 20.403 6.034 20.157 0.000 0.000 0.000 2.312
517 1 23.352 3.966 19.998 0.000 0.000 0.000 2.265
518 1 20.329 5.785 29.346 -0.003 -0.008 0.002 2.297
519 1 23.367 3.683 29.323 0.003 -0.001 0.004 2.255
520 1 20.285 5.916 38.416 -0.000 0.002 0.001 2.273
521 1 23.445 3.885 38.554 -0.005 0.001 0.004 2.258
524 3 25.592 0.122 19.242 0.000 0.000 0.000 -1.104
589 3 24.997 2.634 19.510 0.000 0.000 0.000 -0.996
2080 3 0.080 7.586 18.848 0.000 0.000 0.000 -1.103
2081 3 2.664 8.225 19.641 0.000 0.000 0.000 -0.969
2083 3 3.932 10.308 27.710 -0.009 0.005 -0.001 -0.915
2085 3 2.357 10.658 39.486 -0.001 0.002 -0.005 -1.185
2088 3 0.956 9.945 21.969 -0.008 0.001 0.003 -1.080
2089 3 4.176 7.942 22.219 -0.007 0.009 -0.004 -1.152
2090 3 0.984 8.705 30.887 -0.002 -0.001 0.004 -0.996
2091 3 4.252 7.563 31.622 -0.021 0.006 0.007 -1.153
2092 3 0.690 9.389 41.005 0.002 0.009 -0.001 -1.108
2093 3 5.100 5.709 38.600 -0.003 -0.002 0.004 -1.165
2096 3 2.153 7.676 26.551 0.005 0.014 -0.008 -1.045
2097 3 5.243 10.095 25.108 0.015 0.004 0.004 -1.070
2099 3 4.841 8.760 34.858 0.009 -0.000 0.001 -1.094
2103 3 2.966 9.221 23.873 0.007 -0.002 0.004 -1.213
2105 3 4.551 7.871 26.429 0.004 0.002 -0.004 -1.110
2107 3 3.423 8.823 37.601 -0.005 -0.001 -0.011 -1.064
2115 3 2.807 9.715 32.360 -0.003 -0.010 0.001 -1.116
2116 3 1.883 7.109 20.988 0.000 0.000 0.000 -0.951
2117 3 5.332 9.411 19.736 0.000 0.000 0.000 -1.092
2118 3 3.100 9.181 28.789 -0.004 -0.004 0.008 -0.997
2119 3 5.609 9.578 29.867 0.006 0.001 -0.014 -1.207
2120 3 2.092 7.707 39.813 -0.001 -0.009 0.008 -1.149
2121 3 5.359 9.246 39.206 -0.008 0.009 0.009 -1.209
2125 1 3.455 9.439 25.960 0.001 0.003 0.006 2.319
2127 1 3.029 9.501 35.742 -0.006 -0.000 -0.002 2.251
2130 1 2.202 7.516 23.042 -0.005 0.000 0.000 2.325
2131 1 5.354 9.492 23.096 -0.000 0.001 0.004 2.227
2132 1 2.125 7.756 32.181 0.002 0.001 -0.001 2.364
2133 2 5.229 9.672 32.714 0.001 0.001 0.005 1.620
2134 1 1.883 7.443 41.757 0.003 -0.001 0.002 2.448
2135 1 5.254 9.639 41.430 -0.004 -0.004 -0.005 2.102
2138 1 0.977 9.496 19.852 0.000 0.000 0.000 2.166
2139 1 4.366 7.432 20.081 0.000 0.000 0.000 2.274
2140 1 1.223 9.895 29.169 -0.003 0.004 0.001 2.136
2141 1 4.429 7.858 29.520 0.001 -0.005 -0.004 2.175
2142 1 1.000 9.455 38.811 0.003 0.005 -0.001 2.260
2143 1 4.143 7.574 38.958 -0.000 -0.003 -0.003 2.309
2146 3 0.022 11.240 19.029 0.000 0.000 0.000 -1.038
2147 3 3.170 13.236 19.491 0.000 0.000 0.000 -1.020
2149 3 2.984 13.318 28.791 -0.003 0.010 -0.008 -1.151
2151 3 3.095 13.057 38.073 -0.003 0.000 -0.010 -1.082
2154 3 0.980 13.259 22.203 0.009 -0.007 -0.008 -1.037
2155 3 3.973 10.983 22.174 0.004 -0.015 -0.005 -1.195
2156 3 0.659 12.782 31.844 0.007 0.006 -0.007 -1.105
2157 3 4.286 11.869 31.877 -0.002 0.028 -0.002 -1.062
2159 3 4.558 7.497 40.936 -0.007 0.017 0.011 -1.110
2162 3 2.439 11.144 25.322 -0.008 0.016 -0.008 -1.135
2163 3 5.932 13.098 25.195 -0.002 0.002 -0.007 -1.035
2164 3 2.404 11.359 35.065 0.003 -0.005 -0.001 -1.097
2165 3 5.360 13.049 34.589 -0.001 0.007 -0.003 -1.214
2169 3 3.274 12.884 23.518 0.003 0.010 -0.004 -1.154
2172 3 4.500 10.916 36.589 -0.003 0.007 -0.002 -1.214
2180 3 2.650 13.595 33.520 -0.007 -0.004 0.005 -1.367
2181 3 2.388 10.949 19.611 0.000 0.000 0.000 -1.079
2182 3 5.581 12.872 19.891 0.000 0.000 0.000 -1.129
2183 3 2.071 11.517 30.390 -0.009 -0.015 0.010 -1.250
2184 3 6.604 15.382 28.404 0.009 0.005 0.005 -1.133
2185 3 0.965 13.186 40.569 -0.004 0.015 0.006 -1.139
2186 3 5.439 13.518 39.249 -0.009 -0.006 0.003 -1.111
2190 2 3.052 13.236 26.345 0.005 -0.001 -0.002 1.656
2192 1 3.240 13.484 35.310 0.007 0.004 -0.002 2.143
2195 1 2.240 11.284 23.241 0.002 -0.002 0.000 2.369
2196 1 5.500 13.089 23.159 0.002 0.000 -0.000 2.223
2197 1 2.096 11.649 32.640 -0.003 -0.001 0.005 2.255
2198 1 5.673 13.367 32.494 0.001 0.002 -0.005 2.412
2199 1 1.929 11.070 41.615 0.001 0.002 0.004 2.350
2200 1 5.146 13.603 41.622 -0.001 0.004 -0.002 2.289
2203 1 1.045 12.961 19.923 0.000 0.000 0.000 2.067
2204 1 4.396 11.329 20.041 0.000 0.000 0.000 2.104
2205 1 0.897 13.173 29.502 -0.002 -0.001 -0.003 2.178
2206 1 4.115 11.526 29.530 -0.003 0.000 0.003 2.078
2207 1 0.958 13.219 38.471 0.002 0.001 -0.003 2.267
2208 1 4.235 11.261 38.504 0.001 -0.000 0.001 2.210
2211 3 6.518 7.309 19.536 0.000 0.000 0.000 -1.085
2212 3 9.572 9.336 18.992 0.000 0.000 0.000 -1.112
2213 3 5.891 6.909 28.566 0.007 0.012 0.007 -1.097
2214 3 9.577 10.727 30.351 0.003 -0.005 0.004 -0.972
2215 3 6.500 7.581 37.815 0.001 -0.008 0.004 -1.058
2216 3 9.270 9.462 37.908 0.006 -0.008 -0.015 -1.241
2219 3 7.116 9.139 22.029 0.007 -0.001 -0.013 -1.120
2220 3 10.446 7.262 22.982 0.009 -0.004 -0.007 -1.172
2221 3 8.137 9.209 31.632 -0.010 0.008 -0.001 -1.121
2222 3 10.402 6.905 31.375 0.001 -0.001 -0.020 -1.075
2223 3 7.437 9.707 41.162 -0.000 -0.010 -0.013 -1.236
2224 3 10.481 7.357 40.927 0.015 -0.008 -0.006 -1.139
2227 3 8.388 7.625 24.925 -0.006 0.006 -0.002 -1.208
2228 3 12.006 9.148 25.175 0.002 0.001 -0.001 -1.371
2229 3 8.578 7.808 35.225 0.017 0.007 -0.009 -1.170
2230 3 11.383 9.602 35.462 0.012 -0.005 0.002 -0.930
2233 3 6.082 7.699 24.251 -0.007 0.013 -0.003 -1.068
2234 3 9.410 9.437 23.732 0.007 -0.001 0.007 -1.098
2235 3 7.172 9.270 27.404 -0.002 -0.011 0.002 -1.132
2236 3 9.791 7.461 26.815 -0.002 -0.002 -0.004 -1.195
2237 3 7.097 9.617 36.139 -0.002 -0.012 0.008 -1.138
2238 3 10.875 6.865 37.001 0.005 -0.012 -0.001 -1.105
2240 3 9.571 9.735 42.248 -0.013 0.011 0.009 -1.151
2245 3 6.900 7.072 33.298 -0.004 -0.006 0.006 -1.121
2246 3 9.663 9.224 33.538 -0.002 -0.009 -0.007 -1.099
2247 3 8.949 7.610 20.784 0.000 0.000 0.000 -1.226
2248 3 12.070 8.837 20.735 0.000 0.000 0.000 -0.984
2249 3 8.125 7.390 29.626 -0.006 -0.011 -0.002 -1.203
2250 3 8.479 7.545 39.450 -0.004 0.000 0.004 -1.277
2251 3 11.547 9.224 38.619 -0.005 -0.010 0.005 -1.001
2254 1 6.673 7.540 26.393 0.001 0.002 0.007 2.218
2255 1 10.053 9.134 25.807 -0.005 0.002 0.000 2.079
2256 1 6.436 7.558 35.599 0.003 -0.001 -0.003 2.202
2257 1 9.204 9.767 35.580 -0.002 0.003 0.005 2.213
2260 1 8.440 7.578 22.951 -0.001 0.006 0.002 2.333
2261 1 11.663 9.299 22.856 -0.001 0.004 -0.000 2.116
2262 1 8.747 7.444 32.629 -0.001 -0.006 -0.000 2.168
2263 2 11.847 9.683 32.412 0.004 -0.001 0.000 1.682
2264 1 8.578 7.797 41.868 0.004 0.002 -0.000 2.167
2265 1 11.624 9.154 41.757 -0.003 0.009 -0.003 2.149
2268 1 7.585 9.207 19.958 0.000 0.000 0.000 2.142
2269 1 10.717 7.534 19.765 0.000 0.000 0.000 2.122
2270 1 7.545 9.476 29.463 -0.007 0.003 -0.006 2.124
2271 2 10.582 7.510 29.190 -0.006 -0.000 -0.001 1.611
2272 1 7.355 9.466 38.619 0.001 0.003 0.004 2.197
2273 1 10.196 7.629 38.624 -0.002 0.003 0.003 2.345
2276 3 7.643 11.249 20.014 0.000 0.000 0.000 -0.886
2277 3 11.348 13.113 19.059 0.000 0.000 0.000 -1.019
2278 3 8.305 11.438 29.415 -0.007 -0.007 -0.002 -0.924
2279 3 10.142 13.553 28.286 0.005 0.000 -0.010 -1.138
2280 3 6.547 11.218 37.987 0.002 0.003 -0.010 -1.231
2281 3 8.059 15.177 39.055 0.009 0.001 0.004 -1.171
2284 3 7.793 13.615 22.026 -0.004 0.000 0.002 -1.171
2285 3 10.686 10.503 21.366 0.000 0.000 0.000 -1.030
2286 3 6.719 11.649 32.436 -0.003 0.001 0.010 -1.035
2287 3 7.411 13.654 31.734 -0.010 0.000 0.019 -1.216
2288 3 7.275 13.423 41.131 -0.010 0.005 -0.003 -1.232
2289 3 11.322 10.537 40.114 -0.007 0.004 -0.019 -0.880
2292 3 9.490 11.137 26.202 0.010 -0.003 0.004 -1.003
2293 3 11.864 12.785 26.121 -0.009 -0.005 -0.011 -1.237
2294 3 8.336 11.600 34.784 0.003 0.012 0.002 -1.214
2295 3 11.621 12.961 34.899 0.003 0.002 -0.005 -1.146
2298 3 6.451 11.268 22.803 -0.017 0.001 0.006 -1.042
2299 3 10.109 13.461 24.050 0.016 0.003 0.007 -1.125
2300 3 7.674 13.454 27.365 0.013 0.006 0.009 -1.044
2301 3 10.815 10.457 27.453 0.011 -0.006 -0.006 -1.021
2302 3 9.260 13.404 37.316 0.003 -0.015 -0.008 -1.105
2303 3 10.402 11.368 36.389 0.005 -0.010 0.001 -1.224
2304 3 6.262 11.943 42.473 0.002 -0.001 -0.002 -1.021
2305 3 9.579 12.898 42.354 0.001 -0.005 -0.002 -1.056
2310 3 10.700 11.759 32.499 -0.004 0.001 0.017 -1.073
2311 3 8.887 11.933 18.888 0.000 0.000 0.000 -0.850
2312 3 11.404 13.368 21.411 0.000 0.000 0.000 -1.057
2313 3 5.408 13.013 29.240 -0.003 0.012 -0.004 -1.175
2314 3 13.639 13.093 32.253 -0.010 -0.001 0.003 -1.208
2315 3 8.906 11.816 39.674 0.012 0.005 -0.015 -1.134
2316 3 11.007 13.311 39.192 -0.003 -0.014 0.022 -1.011
2318 2 7.139 11.264 26.144 -0.002 0.004 0.000 1.656
2319 1 9.937 13.347 26.219 0.003 -0.002 -0.003 2.155
2320 1 6.318 11.667 35.936 -0.005 0.003 0.000 2.161
2321 1 9.547 13.324 35.325 0.000 -0.005 -0.002 2.320
2324 2 8.944 11.630 22.654 0.004 0.000 -0.007 1.625
2325 1 12.048 13.192 23.341 0.006 0.005 -0.002 2.126
2326 1 8.790 11.119 32.454 0.005 -0.004 -0.001 2.094
2327 1 11.705 13.627 32.294 -0.005 -0.001 -0.005 2.373
2328 1 8.219 11.514 41.736 -0.003 0.001 -0.002 2.289
2329 2 11.664 13.292 41.533 -0.003 -0.005 0.002 1.712
2332 1 7.668 13.405 19.823 0.000 0.000 0.000 2.102
2333 1 10.750 11.063 19.356 0.000 0.000 0.000 2.093
2334 1 7.448 13.532 29.481 0.005 -0.002 0.000 2.153
2335 1 10.963 11.558 29.291 -0.001 0.003 0.004 2.137
2336 1 7.498 13.233 38.828 -0.000 0.000 -0.003 2.155
2337 1 10.553 11.393 38.332 -0.001 0.000 0.000 2.308
2340 3 12.823 7.387 18.914 0.000 0.000 0.000 -1.128
2341 3 16.304 9.456 19.283 0.000 0.000 0.000 -1.104
2342 3 13.108 6.464 27.570 -0.015 0.001 -0.001 -0.912
2343 3 15.910 10.160 28.543 0.013 -0.001 0.014 -1.162
2344 3 10.999 4.011 35.671 -0.012 -0.001 0.002 -1.156
2345 3 16.517 9.440 37.558 -0.005 0.004 -0.005 -1.269
2348 3 13.873 9.123 22.537 -0.002 0.004 0.005 -0.932
2349 3 17.754 6.963 21.635 -0.007 0.004 -0.007 -0.988
2350 3 14.906 9.852 31.099 0.004 0.002 -0.016 -1.100
2351 3 18.655 6.410 30.425 0.007 0.007 -0.002 -1.146
2352 3 14.297 9.555 40.499 0.009 0.018 -0.006 -1.107
2353 3 17.956 7.593 40.149 -0.011 0.007 -0.012 -0.983
2356 3 15.231 7.640 25.665 -0.004 -0.006 -0.006 -1.107
2357 3 16.785 9.945 24.362 0.024 0.002 -0.009 -0.930
2358 3 14.677 8.395 34.262 -0.004 -0.002 0.001 -0.923
2359 3 18.731 8.999 34.255 -0.005 0.007 -0.002 -1.110
2362 3 13.332 6.890 23.793 -0.011 -0.014 -0.002 -1.283
2363 3 16.719 8.104 22.785 0.000 0.003 -0.003 -0.945
2364 3 14.006 8.864 27.327 0.000 -0.006 0.003 -1.117
2365 3 19.766 7.770 28.588 0.007 0.022 -0.010 -1.135
2366 3 14.174 10.091 36.601 0.005 0.003 -0.008 -1.121
2367 3 16.907 7.563 35.604 -0.002 -0.013 -0.003 -1.110
2368 3 12.934 7.598 41.718 -0.001 0.008 -0.006 -1.138
2369 3 16.339 8.947 42.453 0.008 -0.003 0.014 -1.223
2374 3 12.879 7.434 32.979 -0.005 -0.002 0.009 -1.007
2375 3 16.888 7.954 31.546 0.015 0.004 -0.004 -1.171
2376 3 14.852 7.894 20.624 0.000 0.000 0.000 -1.056
2377 3 18.307 9.701 20.947 0.000 0.000 0.000 -1.096
2378 3 16.223 6.341 28.314 0.001 -0.006 -0.002 -1.177
2379 3 18.157 9.610 29.694 -0.010 -0.014 0.007 -1.127
2380 3 15.427 7.333 39.553 -0.009 -0.001 -0.002 -1.055
2381 3 18.239 10.205 39.561 -0.001 0.009 -0.006 -1.038
2384 1 13.175 7.500 25.803 -0.003 -0.003 0.001 2.265
2385 1 16.016 9.497 26.154 -0.002 0.000 0.001 2.380
2386 2 12.852 7.577 35.517 0.003 0.005 0.002 1.739
2387 1 16.146 9.548 35.411 0.006 -0.002 -0.000 2.189
2390 1 14.794 7.198 22.686 0.004 -0.008 0.001 2.259
2391 1 18.351 9.368 23.106 0.002 0.002 -0.001 2.288
2392 1 15.012 7.784 32.305 0.002 -0.003 -0.000 2.274
2393 1 18.139 9.443 32.289 0.002 -0.005 -0.002 2.252
2394 1 15.092 7.594 41.622 -0.006 -0.001 0.001 2.196
2395 1 18.394 9.415 41.504 0.001 0.001 -0.003 2.173
2398 1 14.056 9.230 19.403 0.000 0.000 0.000 2.080
2399 1 17.262 7.698 19.899 0.000 0.000 0.000 2.224
2400 1 14.099 9.680 29.298 0.002 -0.006 -0.003 2.377
2401 1 17.370 7.777 29.159 -0.002 0.002 0.001 2.092
2402 1 13.612 9.626 38.562 -0.003 0.001 0.000 2.225
2403 1 16.878 7.591 38.202 -0.002 -0.004 -0.001 2.217
2406 3 12.752 10.831 18.766 0.000 0.000 0.000 -1.086
2407 3 16.058 13.344 19.325 0.000 0.000 0.000 -1.052
2408 3 12.200 9.931 29.989 -0.001 -0.005 0.001 -1.111
2409 3 16.350 13.192 28.678 -0.008 -0.006 0.000 -1.204
2410 3 12.769 11.609 38.006 -0.006 -0.014 0.012 -1.261
2411 3 14.939 11.880 39.413 0.002 -0.007 -0.014 -1.019
2414 3 14.090 13.365 23.184 0.001 -0.009 -0.009 -1.038
2415 3 17.092 11.787 22.072 -0.005 -0.001 0.018 -1.068
2416 3 14.942 12.091 30.527 -0.003 0.010 -0.000 -1.027
2417 3 17.114 11.541 31.262 0.010 0.009 0.001 -1.113
2418 3 14.087 13.200 41.843 -0.012 -0.005 0.000 -1.163
2422 3 14.673 10.930 25.634 0.002 0.007 -0.012 -1.120
2423 3 17.870 12.964 25.136 -0.010 -0.010 0.001 -1.134
2424 3 16.359 9.964 33.438 -0.003 0.010 0.007 -1.141
2425 3 18.214 13.846 34.279 0.010 0.004 0.001 -1.146
2428 3 12.470 11.148 23.436 -0.008 0.005 -0.017 -1.094
2429 3 14.661 14.637 25.271 -0.002 -0.003 0.006 -1.193
2430 3 12.621 15.040 28.512 0.003 -0.005 0.012 -1.185
2431 3 16.966 11.387 26.628 0.011 0.003 0.006 -1.079
2432 3 13.915 13.258 35.975 0.016 0.008 0.002 -1.375
2433 3 16.912 11.456 35.412 -0.002 0.007 -0.008 -1.111
2435 3 16.564 13.965 42.378 0.002 -0.006 0.010 -1.097
2440 3 13.561 10.842 33.709 -0.006 0.008 0.002 -1.083
2441 3 16.154 13.213 33.271 -0.016 -0.004 -0.003 -1.301
2442 3 14.975 11.137 19.932 0.000 0.000 0.000 -0.970
2443 3 18.140 13.485 20.932 0.000 0.000 0.000 -1.098
2444 3 13.193 11.366 28.453 -0.002 0.010 0.002 -1.208
2445 3 18.441 13.711 30.368 0.000 0.003 0.000 -1.144
2446 3 16.901 11.583 40.714 -0.002 -0.017 -0.004 -1.171
2447 3 18.324 13.578 39.098 0.002 0.004 -0.003 -1.199
2450 1 12.786 11.050 26.386 0.003 -0.004 0.004 2.099
2451 1 16.002 13.312 26.535 -0.002 -0.004 0.001 2.128
2452 1 12.662 11.359 35.689 -0.001 0.002 0.004 2.141
2453 1 15.967 13.505 35.369 0.001 0.004 -0.003 2.267
2456 2 14.948 11.146 23.051 -0.008 -0.002 0.007 1.728
2457 1 18.399 13.098 22.996 0.002 -0.001 -0.002 2.349
2458 1 15.025 11.448 32.437 0.000 -0.005 0.000 2.302
2459 1 17.987 13.215 32.444 -0.005 0.004 -0.002 2.300
2460 1 15.028 11.269 41.592 -0.003 0.004 -0.003 2.124
2461 1 18.275 13.041 41.392 -0.001 0.000 0.003 2.081
2464 2 13.797 12.979 18.821 0.000 0.000 0.000 1.653
2465 1 17.035 11.422 20.031 0.000 0.000 0.000 2.153
2466 1 13.912 13.334 29.353 0.002 -0.000 0.000 2.373
2467 1 17.178 11.508 29.266 0.003 -0.003 0.001 2.408
2468 1 13.927 13.284 38.031 0.009 -0.004 0.001 2.202
2469 1 16.933 11.320 38.463 -0.000 0.002 0.004 2.282
2472 3 19.397 7.899 19.465 0.000 0.000 0.000 -1.032
2473 3 22.611 9.435 19.762 0.000 0.000 0.000 -1.053
2474 3 22.015 6.196 28.413 -0.003 0.006 -0.004 -1.142
2475 3 19.692 9.831 27.547 -0.003 0.004 0.003 -0.984
2476 3 18.456 5.403 39.524 -0.009 -0.005 0.004 -1.121
2477 3 22.744 11.019 36.764 -0.006 -0.006 -0.013 -1.139
2480 3 20.697 9.725 22.533 -0.007 0.012 0.005 -1.130
2481 3 24.113 7.356 22.111 -0.002 0.002 0.001 -1.123
2482 3 22.124 9.305 33.514 0.013 -0.007 -0.002 -1.265
2483 3 24.326 9.758 34.406 -0.004 -0.000 -0.011 -1.201
2484 3 20.415 9.417 40.706 -0.005 0.013 0.003 -1.247
2485 3 23.220 11.796 40.887 -0.005 0.009 0.001 -1.202
2488 3 21.183 8.290 25.494 0.007 0.007 -0.006 -1.089
2490 3 21.402 7.579 35.310 0.001 0.006 -0.007 -1.167
2494 3 19.323 7.614 23.842 -0.006 0.004 0.001 -1.199
2495 3 22.742 9.591 23.426 0.002 0.000 -0.001 -1.168
2496 3 18.672 9.526 25.266 0.003 0.003 -0.007 -0.972
2497 3 23.200 7.575 26.807 -0.004 0.015 -0.011 -1.195
2498 3 18.951 7.822 37.713 -0.009 -0.005 -0.002 -1.173
2499 3 23.687 8.354 36.464 0.012 -0.000 -0.006 -1.095
2506 3 19.245 7.493 32.792 0.005 0.008 -0.013 -1.108
2507 3 20.554 9.609 36.478 -0.015 -0.006 -0.006 -1.211
2508 3 21.180 7.624 21.207 0.000 0.000 0.000 -1.081
2509 3 24.830 9.960 21.066 0.000 0.000 0.000 -1.184
2510 3 21.516 8.158 30.377 0.008 -0.001 -0.007 -1.193
2511 3 22.576 9.607 28.497 0.002 -0.012 0.008 -1.188
2512 3 21.350 7.732 38.935 0.012 -0.008 0.002 -1.149
2513 3 24.169 9.516 39.643 -0.011 -0.018 -0.006 -1.100
2516 1 19.292 7.718 26.353 0.001 0.003 0.004 2.270
2517 1 22.542 9.562 26.283 0.002 0.006 0.001 2.207
2518 1 19.212 7.286 35.378 -0.000 0.000 0.002 2.201
2519 1 22.195 9.365 35.466 -0.000 0.002 -0.002 2.466
2522 1 21.328 7.741 23.286 0.001 -0.001 -0.001 2.209
2523 1 24.640 9.295 22.980 -0.006 -0.003 -0.001 2.325
2524 1 21.226 7.716 32.406 -0.002 0.003 0.001 2.205
2525 1 24.341 9.220 32.249 0.002 -0.001 0.003 2.310
2526 1 21.697 7.757 41.525 0.001 0.005 0.001 2.280
2527 1 24.660 9.517 41.506 0.001 -0.004 -0.000 2.329
2530 1 20.420 9.726 20.230 0.000 0.000 0.000 2.111
2531 1 23.698 7.625 20.104 0.000 0.000 0.000 2.139