ITEM: TIMESTEP
31000
ITEM: NUMBER OF ATOMS
32000
ITEM: BOX BOUNDS pp pp pp
-3.079652 73.559652
-2.993645 73.473645
-2.983879 73.463879
ITEM: ATOMS id type x y z vx vy vz q
6 4 0.366 -0.790 -0.740 0.008 0.006 0.000 -0.000
10 4 4.472 -0.852 -1.012 -0.004 0.003 -0.010 -0.000
14 4 8.495 -0.849 -1.160 0.001 0.002 -0.007 0.000
18 4 12.216 -1.012 -1.247 0.004 -0.014 -0.004 0.000
43 4 -1.477 1.202 -1.078 0.004 0.001 -0.001 0.000
46 4 0.458 3.163 -0.939 0.002 -0.005 0.000 0.000
47 4 2.060 0.914 -0.747 0.003 0.000 -0.012 -0.000
50 4 4.126 2.951 -1.392 0.001 -0.003 0.005 0.000
51 4 6.261 1.261 -1.135 -0.002 0.005 0.016 0.000
54 4 8.420 2.876 -1.474 -0.008 -0.000 -0.003 -0.000
55 4 10.393 0.892 -1.210 -0.006 0.001 -0.014 0.000
58 4 12.308 3.050 -1.387 -0.002 -0.011 -0.006 0.000
59 4 14.218 0.840 -1.141 0.005 -0.002 -0.012 0.000
83 4 -1.210 5.170 -1.422 -0.014 -0.001 0.005 0.000
86 4 0.752 6.830 -1.178 -0.006 -0.014 -0.001 0.000
87 4 2.427 5.160 -1.144 -0.000 -0.007 0.002 0.000
90 4 4.121 6.630 -1.224 -0.001 0.006 0.006 -0.000
91 4 6.363 4.916 -1.005 0.004 -0.002 -0.008 0.000
94 4 8.243 6.705 -1.341 0.000 0.005 0.008 -0.000
95 4 10.151 4.606 -1.167 -0.006 0.005 -0.004 -0.000
98 4 12.030 6.617 -1.185 -0.004 -0.005 -0.003 0.000
99 4 14.204 4.636 -1.124 -0.001 -0.006 0.007 -0.000
123 4 -1.053 8.855 -1.268 -0.011 0.005 0.003 0.000
126 4 0.470 10.910 -0.994 0.003 0.007 -0.009 0.000
127 4 2.564 8.706 -1.058 0.002 0.000 -0.005 -0.000
130 4 4.486 10.538 -1.199 0.003 0.002 -0.004 -0.000
131 4 6.451 8.367 -1.231 -0.004 0.007 0.004 -0.000
134 4 8.368 10.348 -1.386 -0.004 -0.005 0.007 -0.000
135 4 10.440 8.768 -1.263 -0.004 0.003 0.000 0.000
138 4 12.421 10.599 -0.597 -0.002 -0.013 0.003 0.000
139 4 14.309 8.646 -1.121 0.013 -0.008 -0.003 -0.000
163 4 -1.426 12.429 -0.920 0.018 -0.007 -0.005 0.000
166 4 0.719 13.919 -1.235 0.000 -0.008 0.001 -0.000
167 4 2.723 12.754 -1.333 0.002 -0.009 -0.006 0.000
170 4 5.025 14.062 -0.767 0.003 0.000 -0.002 0.000
171 4 6.643 12.362 -1.023 0.003 0.008 -0.000 0.000
174 4 8.599 14.117 -1.066 -0.003 -0.005 -0.010 -0.000
175 4 10.241 12.074 -1.062 -0.011 -0.005 -0.001 -0.000
178 4 12.069 14.134 -0.966 0.006 0.010 -0.001 0.000
179 4 14.225 12.485 -0.996 -0.005 -0.006 -0.002 0.000
404 4 -1.619 -0.955 1.191 0.001 -0.004 -0.002 -0.000
406 4 0.635 -0.652 3.063 0.000 -0.003 -0.019 0.000
408 4 2.639 -1.034 1.265 0.001 0.004 0.003 -0.000
410 4 4.539 -0.900 3.000 0.004 -0.008 0.001 0.000
412 4 5.933 -0.817 1.041 -0.008 -0.002 -0.002 -0.000
414 4 8.512 -0.406 2.929 0.017 -0.008 -0.003 -0.000
416 4 10.282 -0.781 0.634 -0.002 0.003 0.002 -0.000
418 4 12.738 -1.236 2.601 -0.004 0.006 -0.002 -0.000
420 4 14.348 -1.046 0.324 -0.017 -0.000 -0.002 0.000
443 4 -1.356 0.876 3.065 0.002 0.004 -0.005 -0.000
444 4 -1.278 3.304 1.025 -0.000 0.010 0.001 0.000
445 4 -0.157 0.896 1.183 0.003 0.005 0.006 0.000
446 4 0.833 3.296 2.899 0.015 0.001 -0.000 -0.000
447 4 2.080 1.158 2.923 -0.002 -0.004 0.009 0.000
448 4 2.232 2.970 1.018 -0.005 0.005 0.004 0.000
449 4 4.094 1.108 0.630 0.004 0.008 0.001 0.000
450 4 4.475 2.791 2.603 -0.008 -0.001 -0.005 0.000
451 4 6.374 1.015 2.563 -0.001 0.000 0.000 0.000
452 4 6.600 2.947 0.659 0.007 0.006 -0.008 0.000
453 4 8.251 1.039 0.763 0.008 0.000 0.005 0.000
454 4 8.441 2.562 2.683 -0.002 0.001 0.000 -0.000
455 4 10.314 1.112 2.553 0.004 -0.012 -0.008 0.000
456 4 10.348 2.908 0.720 0.003 -0.010 0.011 0.000
457 4 12.749 0.847 0.750 0.005 -0.000 -0.007 0.000
458 4 12.513 2.594 2.272 -0.005 -0.003 -0.007 0.000
459 4 14.241 0.835 3.032 -0.015 0.001 -0.002 0.000
460 4 14.697 2.821 0.525 0.001 0.009 -0.010 -0.000
483 4 -1.321 4.925 2.837 -0.000 -0.015 0.002 -0.000
484 4 -1.419 6.893 0.507 -0.003 -0.003 0.004 -0.000
485 4 0.696 5.458 0.906 0.013 -0.004 0.006 -0.000
486 4 0.809 6.838 2.832 0.012 0.003 -0.003 -0.000
487 4 2.693 5.047 2.715 -0.007 -0.006 0.006 0.000
488 4 2.553 6.834 1.112 -0.008 0.013 0.012 0.000
489 4 4.412 4.855 0.942 0.000 -0.003 0.013 0.000
490 4 4.729 6.892 2.778 0.000 -0.013 0.000 0.000
491 4 6.300 4.651 2.690 -0.010 0.008 -0.000 0.000
492 4 6.613 6.768 0.860 -0.001 0.009 0.001 -0.000
493 4 8.569 4.940 0.666 -0.002 -0.004 0.008 0.000
494 4 8.574 6.234 2.580 -0.002 0.008 -0.000 0.000
495 4 10.752 4.934 2.376 -0.006 0.008 -0.014 0.000
496 4 10.401 6.860 0.457 0.003 0.001 -0.002 0.000
497 4 12.460 4.689 0.458 0.011 -0.008 0.004 0.000
498 4 12.482 6.516 2.860 -0.006 0.001 -0.004 0.000
499 4 14.197 4.135 2.711 0.014 -0.005 -0.003 0.000
500 4 14.189 6.421 1.050 0.007 -0.002 -0.000 0.000
523 4 -1.282 8.612 2.704 0.001 0.001 0.001 0.000
524 4 -1.314 10.673 0.745 -0.005 -0.014 0.009 0.000
525 4 0.535 8.561 0.827 0.005 0.003 -0.007 0.000
526 4 0.652 10.800 2.309 0.002 0.001 0.007 -0.000
527 4 2.521 8.906 2.014 0.008 0.004 0.009 0.000
528 4 2.343 11.196 0.443 0.006 0.003 0.017 0.000
529 4 4.291 8.820 0.789 -0.005 0.002 -0.005 0.000
530 4 4.737 10.502 2.842 -0.004 0.006 0.000 0.000
531 4 6.862 8.698 2.785 -0.001 0.001 0.001 -0.000
532 4 6.435 10.318 0.599 0.001 0.019 0.002 0.000
533 4 8.515 8.640 0.782 0.011 0.006 -0.000 -0.000
534 4 8.374 10.389 2.746 -0.004 -0.003 0.002 -0.000
535 4 10.413 8.233 2.481 -0.000 -0.000 -0.001 -0.000
536 4 10.518 10.299 0.628 -0.002 -0.013 0.000 0.000
537 4 12.667 8.583 0.803 -0.002 0.004 -0.009 0.000
538 4 12.374 10.231 2.584 0.009 0.006 0.006 -0.000
539 4 14.174 8.515 2.581 -0.000 -0.006 -0.004 -0.000
540 4 14.427 10.426 0.958 0.000 -0.013 0.000 0.000
563 4 -1.248 12.883 2.768 -0.007 0.004 0.003 -0.000
564 4 -1.251 14.320 1.131 0.000 -0.008 0.002 -0.000
565 4 0.441 12.790 0.924 0.006 0.000 0.003 -0.000
566 4 0.674 14.770 2.567 0.008 -0.004 -0.004 -0.000
567 4 2.478 12.589 2.654 0.007 0.011 -0.003 0.000
568 4 2.571 14.252 0.599 -0.000 -0.004 0.009 0.000
569 4 4.848 12.094 0.739 -0.005 -0.005 0.011 0.000
570 4 4.592 13.898 2.805 -0.009 0.003 0.013 0.000
571 4 6.487 12.280 2.821 0.011 -0.002 -0.001 -0.000
572 4 6.871 14.049 0.750 -0.000 -0.002 -0.012 0.000
573 4 8.490 12.436 0.853 -0.008 -0.001 -0.002 -0.000
574 4 8.231 14.607 3.019 0.011 -0.005 -0.004 -0.000
575 4 10.166 12.531 2.978 -0.006 -0.006 0.003 -0.000
576 4 10.452 14.213 0.857 -0.005 0.004 0.006 0.000
577 4 12.255 12.445 0.954 0.000 -0.004 -0.003 0.000
578 4 12.301 14.492 2.892 0.007 -0.001 -0.007 -0.000
579 4 13.991 12.456 2.938 -0.005 0.004 -0.003 -0.000
580 4 13.887 14.457 0.775 -0.004 0.008 -0.007 0.000
804 4 -1.526 -0.570 5.241 0.006 0.011 0.007 0.000
806 4 0.684 -0.914 6.653 0.007 -0.008 -0.004 0.000
808 4 2.650 -0.864 4.733 0.006 -0.002 -0.006 0.000
810 4 4.624 -0.931 6.372 -0.002 0.001 0.011 0.000
812 4 6.762 -0.251 4.876 -0.001 -0.014 0.001 0.000
814 4 8.607 -0.741 6.499 -0.004 -0.008 0.003 -0.000
816 4 10.497 -0.624 4.568 0.009 0.009 0.004 -0.000
818 4 12.038 -0.494 6.911 -0.003 0.009 -0.008 -0.000
820 4 13.941 -1.019 5.138 0.001 0.004 0.003 0.000
843 4 -0.944 1.130 6.751 -0.008 0.008 -0.000 -0.000
844 4 -1.025 3.111 5.030 0.001 0.004 -0.003 -0.000
845 4 0.633 1.349 4.680 -0.002 -0.007 0.007 0.000
846 4 0.615 3.363 6.795 0.006 -0.007 0.012 -0.000
847 4 2.714 1.411 6.251 -0.001 -0.007 0.004 -0.000
848 4 1.999 3.619 4.819 -0.002 -0.003 0.006 -0.000
849 4 4.430 0.951 4.409 0.008 0.003 -0.001 0.000
850 4 4.639 2.684 6.489 -0.004 0.002 -0.014 0.000
851 4 6.939 0.909 6.957 -0.010 -0.006 -0.004 0.000
852 4 6.643 2.741 4.504 0.001 0.000 -0.002 0.000
853 4 8.772 1.295 4.892 0.003 -0.006 0.002 -0.000
854 4 8.796 3.055 6.814 0.002 0.000 -0.000 -0.000
855 4 10.241 1.109 7.036 0.015 -0.009 -0.003 0.000
856 4 10.781 2.607 5.092 -0.001 0.001 0.007 -0.000
857 4 12.324 0.963 4.556 -0.006 0.004 0.004 0.000
858 4 12.519 2.815 6.817 0.008 -0.005 -0.002 0.000
859 4 14.105 0.803 7.032 -0.006 -0.010 -0.008 0.000
860 4 14.490 2.526 5.025 0.004 -0.008 -0.001 -0.000
883 4 -1.716 5.060 6.952 -0.001 0.011 -0.002 0.000
884 4 -1.630 6.806 4.777 -0.002 -0.000 -0.001 -0.000
885 4 0.356 5.160 4.732 -0.013 0.003 0.001 -0.000
886 4 0.864 6.730 6.759 0.005 0.004 -0.015 -0.000
887 4 2.657 4.969 6.672 0.002 -0.002 0.001 -0.000
888 4 2.517 6.633 4.508 -0.001 -0.011 0.003 -0.000
889 4 4.443 4.297 4.476 0.002 0.009 0.007 0.000
890 4 4.463 6.498 6.467 -0.000 0.002 -0.009 -0.000
891 4 6.546 4.615 6.438 0.001 -0.002 0.000 0.000
892 4 6.946 6.147 4.558 0.004 -0.005 -0.004 -0.000
893 4 8.815 4.729 4.618 -0.002 -0.005 0.006 -0.000
894 4 8.288 6.511 6.638 0.003 -0.002 0.001 -0.000
895 4 10.407 4.916 6.524 0.008 -0.014 -0.012 -0.000
896 4 10.455 6.560 4.559 0.000 0.000 -0.006 -0.000
897 4 12.444 4.095 4.489 -0.001 -0.004 0.003 0.000
898 4 12.419 6.608 6.305 -0.001 0.003 -0.004 -0.000
899 4 14.355 4.592 6.572 0.001 0.001 0.009 0.000
900 4 14.294 6.844 4.776 0.005 -0.002 0.002 0.000
923 4 -1.221 8.557 6.483 -0.001 -0.002 0.005 -0.000
924 4 -1.173 10.858 4.177 0.003 0.006 -0.010 -0.000
925 4 0.728 8.634 4.145 0.007 -0.013 -0.017 -0.000
926 4 0.761 10.356 6.550 0.003 0.002 0.004 -0.000
927 4 2.669 8.339 6.625 0.004 0.002 -0.007 0.000
928 4 2.534 10.235 4.645 -0.008 -0.004 0.003 -0.000
929 4 4.154 8.765 4.375 -0.004 -0.002 0.011 0.000
930 4 4.606 10.290 6.767 -0.004 -0.011 -0.002 0.000
931 4 6.538 8.396 6.484 -0.010 -0.001 -0.010 -0.000
932 4 6.177 10.515 4.936 0.004 -0.005 0.000 -0.000
933 4 8.640 8.165 4.354 0.011 0.004 0.002 -0.000
934 4 8.474 10.530 6.780 -0.002 -0.003 -0.002 0.000
935 4 10.330 8.276 6.428 -0.002 0.004 -0.001 -0.000
936 4 10.344 10.267 4.474 -0.001 -0.002 -0.008 0.000
937 4 12.268 8.664 4.751 -0.003 0.001 0.001 -0.000
938 4 11.760 10.677 6.551 0.000 0.008 0.009 0.000
939 4 14.270 8.903 6.545 0.004 -0.002 -0.004 0.000
940 4 14.184 10.587 4.871 0.006 0.000 0.005 -0.000
963 4 -1.139 12.089 6.499 0.005 0.006 0.001 -0.000
964 4 -1.010 14.595 4.655 0.002 0.001 0.007 -0.000
965 4 1.019 12.383 4.495 -0.002 0.003 -0.001 -0.000
966 4 0.607 14.290 6.367 0.007 0.000 0.009 -0.000
967 4 2.466 12.231 6.689 -0.006 -0.004 0.001 0.000
968 4 2.573 14.776 4.843 0.004 0.009 0.002 -0.000
969 4 4.512 12.267 5.087 0.006 0.003 -0.002 0.000
970 4 4.307 14.614 6.733 -0.004 0.000 0.003 0.000
971 4 6.208 12.441 6.796 -0.002 -0.001 -0.003 -0.000
972 4 6.258 14.157 4.735 0.002 0.002 -0.004 -0.000
973 4 8.252 12.490 5.201 0.005 0.012 0.009 -0.000
974 4 8.010 14.833 6.833 0.003 -0.001 0.002 -0.000
975 4 10.332 12.798 6.748 0.002 0.005 -0.002 0.000
976 4 10.148 14.506 4.833 -0.007 0.008 -0.003 0.000
977 4 12.193 12.642 4.443 -0.006 -0.001 -0.003 0.000
978 4 12.473 14.175 6.383 0.007 0.000 -0.003 -0.000
979 4 14.249 12.460 6.502 0.008 0.004 -0.004 0.000
980 4 14.072 14.461 4.603 -0.000 0.002 0.003 0.000
1204 4 -1.422 -0.880 8.778 -0.002 0.005 0.008 0.000
1206 4 0.727 -0.704 10.061 -0.007 -0.005 0.007 0.000
1208 4 2.629 -0.721 7.862 -0.002 0.002 0.003 -0.000
1210 4 4.644 -0.958 10.165 0.007 -0.001 -0.001 -0.000
1212 4 6.672 -1.189 8.215 0.005 0.004 -0.002 -0.000
1214 4 8.555 -1.093 10.565 -0.013 -0.008 -0.002 0.000
1216 4 10.139 -0.967 8.486 -0.002 -0.007 -0.000 -0.000
1218 4 12.270 -0.716 10.016 -0.009 -0.007 0.012 -0.000
1220 4 14.205 -1.297 8.476 -0.007 0.012 -0.011 -0.000
1243 4 -0.887 1.180 10.211 -0.005 0.005 0.004 -0.000
1244 4 -1.480 3.227 8.861 -0.005 -0.008 0.008 -0.000
1245 4 0.921 0.921 8.576 -0.001 0.002 -0.009 -0.000
1246 4 0.690 2.880 9.992 -0.000 0.001 0.005 -0.000
1247 4 2.599 0.649 10.293 -0.001 -0.004 -0.005 -0.000
1248 4 2.610 2.817 8.481 -0.002 0.001 0.001 -0.000
1249 4 4.354 0.864 8.270 0.003 0.008 0.001 -0.000
1250 4 4.292 2.886 10.276 0.001 -0.006 -0.003 0.000
1251 4 6.564 1.011 9.850 -0.002 0.006 -0.005 0.000
1252 4 6.704 3.258 8.446 0.002 0.006 0.003 0.000
1253 4 8.638 1.351 8.849 0.005 0.004 0.005 0.000
1254 4 8.157 3.378 10.240 0.004 0.012 0.012 0.000
1255 4 10.509 1.045 10.484 -0.003 0.006 -0.007 -0.000
1256 4 10.250 2.933 8.900 0.001 0.005 0.001 0.000
1257 4 12.224 1.108 8.583 -0.001 -0.008 -0.011 -0.000
1258 4 12.441 3.075 10.203 0.004 0.006 0.002 0.000
1259 4 14.374 0.853 10.264 -0.005 -0.012 0.000 -0.000
1260 4 14.411 2.825 8.630 -0.003 0.008 0.004 -0.000
1283 4 -0.908 4.997 10.347 -0.000 0.003 -0.002 -0.000
1284 4 -0.953 6.907 8.261 0.001 -0.000 0.009 0.000
1285 4 0.995 4.852 8.405 0.005 0.001 0.000 -0.000
1286 4 0.778 6.722 10.529 -0.006 -0.003 -0.002 0.000
1287 4 2.519 5.014 10.299 0.009 -0.005 -0.001 -0.000
1288 4 2.338 6.800 8.814 0.016 0.004 -0.003 0.000
1289 4 4.310 4.921 8.751 0.002 -0.002 -0.011 -0.000
1290 4 4.676 7.038 10.697 0.006 0.002 0.007 0.000
1291 4 6.513 5.070 10.532 -0.004 -0.012 -0.001 0.000
1292 4 6.265 6.542 8.591 -0.009 -0.008 -0.007 -0.000
1293 4 8.637 5.109 8.567 -0.000 0.002 0.005 -0.000
1294 4 8.643 6.355 11.080 0.002 0.009 0.004 0.000
1295 4 11.064 5.369 10.575 0.000 0.001 -0.003 -0.000
1296 4 10.759 6.705 8.575 0.007 -0.001 -0.012 -0.000
1297 4 12.647 5.008 8.212 -0.005 -0.020 0.007 -0.000
1298 4 12.624 6.875 10.430 0.006 0.007 -0.003 0.000
1299 4 14.693 5.084 10.309 -0.007 -0.001 -0.010 -0.000
1300 4 14.335 6.676 8.177 -0.006 -0.008 -0.010 0.000
1323 4 -1.246 8.170 10.568 -0.009 0.004 -0.003 -0.000
1324 4 -1.114 10.515 8.969 0.000 0.002 -0.004 -0.000
1325 4 0.383 8.878 8.806 0.003 0.012 0.004 -0.000
1326 4 0.699 10.407 10.391 -0.005 -0.016 0.001 0.000
1327 4 2.649 8.651 10.380 -0.000 -0.002 0.010 0.000
1328 4 2.664 10.503 8.354 0.004 -0.001 0.000 0.000
1329 4 4.650 8.366 8.369 -0.003 0.002 -0.006 0.000
1330 4 4.591 10.531 10.015 -0.007 -0.013 -0.004 0.000
1331 4 7.134 7.925 10.154 0.013 0.000 -0.004 -0.000
1332 4 6.468 10.375 8.195 -0.000 0.005 0.010 -0.000
1333 4 8.781 8.513 8.613 0.006 0.004 -0.003 -0.000
1334 4 8.547 10.363 10.204 -0.001 0.002 0.013 -0.000
1335 4 10.646 8.230 10.643 0.002 -0.001 -0.010 0.000
1336 4 10.533 10.235 8.745 -0.000 -0.002 -0.007 0.000
1337 4 12.244 8.501 8.154 0.001 0.001 0.008 0.000
1338 4 12.423 10.353 10.543 0.006 0.001 -0.002 0.000
1339 4 14.296 8.591 10.554 -0.001 0.004 0.004 -0.000
1340 4 13.883 10.447 8.719 0.006 -0.014 0.003 0.000
1363 4 -1.021 12.801 10.598 -0.004 0.004 0.003 -0.000
1364 4 -0.821 14.664 8.532 0.012 -0.001 -0.004 0.000
1365 4 0.806 12.389 8.716 -0.004 0.005 0.004 0.000
1366 4 0.861 14.586 10.587 -0.008 0.006 0.003 0.000
1367 4 2.571 12.263 10.509 -0.003 -0.005 0.005 0.000
1368 4 2.610 14.007 8.399 0.006 -0.003 0.005 0.000
1369 4 4.586 12.660 8.454 -0.004 0.003 0.002 0.000
1370 4 4.345 14.343 10.327 -0.005 -0.015 -0.000 0.000
1371 4 6.207 12.483 9.740 -0.006 -0.006 0.002 0.000
1372 4 6.308 14.589 8.560 -0.011 -0.000 -0.003 -0.000
1373 4 8.430 12.419 8.440 0.001 0.000 0.003 0.000
1374 4 8.582 14.362 10.370 0.008 0.001 -0.002 -0.000
1375 4 10.134 12.319 10.159 -0.012 0.001 0.003 0.000
1376 4 10.263 14.519 8.499 -0.011 0.006 -0.005 0.000
1377 4 12.450 12.087 8.342 0.006 -0.001 -0.000 0.000
1378 4 12.213 14.503 10.151 -0.005 0.006 -0.002 0.000
1379 4 14.198 12.849 10.699 0.003 0.001 -0.006 -0.000
1380 4 14.182 14.449 8.483 -0.006 -0.001 -0.002 0.000
1604 4 -1.169 -0.803 11.982 -0.010 -0.002 -0.007 0.000
1606 4 0.883 -0.981 14.143 -0.001 -0.002 -0.008 0.000
1608 4 2.762 -1.061 12.236 -0.008 0.004 0.003 0.000
1610 4 4.595 -0.586 13.991 0.011 0.007 0.005 0.000
1612 4 6.509 -0.778 11.965 0.010 0.002 0.005 -0.000
1614 4 8.026 -1.003 13.739 0.005 0.006 0.000 0.000
1616 4 10.487 -1.023 12.018 -0.012 0.006 0.014 0.000
1618 4 12.387 -0.662 13.876 0.002 -0.006 0.003 -0.000
1620 4 14.227 -0.995 12.114 0.001 0.001 -0.004 -0.000
1643 4 -1.193 1.213 14.087 0.001 0.005 0.008 0.000
1644 4 -1.242 3.192 12.471 -0.001 -0.006 0.006 0.000
1645 4 0.774 0.959 12.256 0.006 0.001 -0.000 0.000
1646 4 0.778 2.949 14.325 0.001 -0.001 0.001 0.000
1647 4 2.599 0.939 13.901 -0.004 -0.006 -0.001 0.000
1648 4 2.588 2.878 12.033 0.002 0.002 0.010 0.000
1649 4 4.614 0.967 11.991 -0.009 0.005 0.007 0.000
1650 4 4.586 2.629 14.027 0.007 -0.002 0.007 -0.000
1651 4 6.707 1.026 13.733 -0.004 -0.006 -0.006 -0.000
1652 4 6.429 2.889 12.244 -0.001 0.007 -0.006 0.000
1653 4 8.352 1.210 11.867 0.002 0.009 0.016 -0.000
1654 4 8.722 2.774 14.293 -0.001 0.003 -0.002 -0.000
1655 4 10.337 0.988 13.907 -0.003 0.004 -0.000 0.000
1656 4 10.560 3.081 12.222 -0.015 -0.004 0.008 -0.000
1657 4 12.505 1.244 11.943 -0.001 0.011 0.007 -0.000
1658 4 12.393 2.556 14.384 -0.009 0.002 0.000 -0.000
1659 4 14.380 1.010 14.412 0.003 -0.001 -0.004 -0.000
1660 4 14.570 3.340 12.286 -0.004 -0.008 -0.007 0.000
1683 4 -1.042 4.996 14.526 -0.006 0.013 -0.003 0.000
1684 4 -1.054 6.649 12.365 -0.006 0.006 0.004 -0.000
1685 4 0.917 4.663 12.490 0.000 0.008 0.008 0.000
1686 4 1.085 6.496 14.102 0.007 0.012 0.002 -0.000
1687 4 2.745 4.543 13.822 0.003 -0.004 -0.002 0.000
1688 4 2.851 6.540 12.039 0.003 0.002 -0.003 -0.000
1689 4 4.581 4.962 11.951 -0.002 -0.000 0.000 0.000
1690 4 4.674 6.835 14.272 -0.002 -0.001 0.007 0.000
1691 4 6.265 4.750 14.107 -0.007 -0.002 0.005 -0.000
1692 4 6.381 6.784 12.307 0.003 -0.006 -0.015 -0.000
1693 4 8.313 4.584 12.624 -0.007 0.006 0.005 0.000
1694 4 8.412 6.643 14.115 0.013 0.007 -0.007 0.000
1695 4 10.464 4.619 14.276 -0.005 -0.002 -0.001 0.000
1696 4 10.767 6.681 12.796 0.013 0.004 -0.004 0.000
1697 4 12.389 4.642 12.469 -0.007 0.019 0.004 0.000
1698 4 12.564 6.551 14.315 -0.001 -0.012 -0.007 0.000
1699 4 14.338 4.448 14.453 -0.010 -0.002 -0.013 0.000
1700 4 14.652 6.645 12.517 0.001 -0.011 0.008 -0.000
1723 4 -0.865 8.308 13.983 -0.005 0.007 0.006 -0.000
1724 4 -1.002 10.096 12.141 -0.001 0.000 -0.006 -0.000
1725 4 1.035 8.575 12.171 -0.004 -0.004 -0.008 -0.000
1726 4 0.985 10.443 14.434 -0.003 -0.007 0.004 0.000
1727 4 2.390 8.431 13.824 0.007 0.008 -0.000 0.000
1728 4 2.900 10.512 12.356 0.001 0.010 0.001 0.000
1729 4 4.708 8.541 12.603 -0.003 0.003 0.006 0.000
1730 4 4.412 10.845 14.352 0.005 -0.001 0.005 0.000
1731 4 7.021 8.785 14.447 0.009 0.002 0.000 0.000
1732 4 5.930 10.697 12.415 -0.005 0.001 0.005 0.000
1733 4 7.874 8.691 12.289 0.009 0.002 0.002 0.000
1734 4 8.306 11.062 14.252 -0.012 0.002 -0.009 -0.000
1735 4 9.927 8.706 14.704 -0.003 0.003 0.001 0.000
1736 4 10.215 10.207 12.437 -0.000 0.006 -0.005 -0.000
1737 4 12.392 8.456 12.416 -0.007 0.010 -0.006 0.000
1738 4 11.923 10.629 14.157 -0.002 0.001 0.007 0.000
1739 4 14.552 8.640 14.361 -0.005 -0.005 0.008 -0.000
1740 4 14.261 10.438 12.079 -0.005 -0.003 -0.008 -0.000
1763 4 -1.099 12.396 14.115 0.003 0.001 -0.001 0.000
1764 4 -0.819 14.394 12.591 0.007 0.009 0.014 0.000
1765 4 0.831 12.142 12.132 0.000 0.006 -0.002 0.000
1766 4 0.765 14.442 14.583 0.003 0.004 0.004 0.000
1767 4 2.567 12.519 14.213 -0.003 0.007 0.008 0.000
1768 4 2.535 14.184 12.376 0.007 0.002 0.005 0.000
1769 4 4.529 12.397 11.952 0.002 -0.001 -0.002 -0.000
1770 4 4.664 14.461 14.301 -0.011 0.005 -0.008 0.000
1771 4 6.413 12.562 14.264 0.003 -0.002 0.002 -0.000
1772 4 6.449 13.987 12.433 0.004 -0.002 -0.004 0.000
1773 4 8.420 12.026 11.973 -0.007 0.002 0.001 -0.000
1774 4 8.361 14.308 14.064 -0.004 0.008 0.009 0.000
1775 4 10.250 12.595 13.966 0.007 -0.004 -0.002 -0.000
1776 4 10.600 14.261 12.389 0.000 -0.002 -0.008 -0.000
1777 4 12.050 12.314 12.242 -0.003 -0.004 0.003 -0.000
1778 4 12.148 14.567 14.147 0.001 -0.010 0.003 -0.000
1779 4 13.785 12.270 13.790 0.001 -0.011 0.001 -0.000
1780 4 13.987 14.665 12.529 0.005 -0.000 -0.002 -0.000
2004 4 -1.297 -0.626 16.272 -0.008 -0.001 0.001 -0.000
2006 4 0.849 -0.936 17.686 -0.009 0.002 -0.011 -0.000
2008 4 2.816 -0.896 16.217 0.006 -0.001 0.004 0.000
2010 4 4.635 -1.130 17.899 0.008 -0.006 -0.009 -0.000
2012 4 6.187 -0.749 15.661 -0.007 -0.006 0.004 -0.000
2014 4 8.557 -1.113 17.916 0.005 0.010 0.016 0.000
2016 4 10.302 -0.882 15.728 0.001 -0.004 0.006 -0.000
2018 4 12.249 -1.060 18.210 0.003 0.002 -0.001 0.000
2020 4 14.000 -0.856 16.105 0.006 0.000 0.012 -0.000
2043 4 -1.287 1.125 17.916 0.004 -0.000 -0.004 -0.000
2044 4 -1.567 2.998 15.936 -0.004 -0.004 -0.002 0.000
2045 4 0.818 0.842 15.989 0.002 0.003 -0.004 0.000
2046 4 0.525 2.519 17.785 0.004 0.004 -0.012 0.000
2047 4 2.701 0.725 18.078 0.009 -0.008 0.006 0.000
2048 4 2.572 2.567 15.973 -0.003 0.001 0.001 0.000
2049 4 4.355 0.880 15.874 -0.001 0.003 -0.003 -0.000
2050 4 4.126 2.647 17.968 -0.011 0.009 -0.002 -0.000
2051 4 6.513 0.634 17.858 0.006 -0.003 0.013 -0.000
2052 4 6.559 2.148 16.035 -0.002 0.008 0.005 -0.000
2053 4 8.567 0.805 16.216 -0.002 -0.003 0.012 -0.000
2054 4 8.240 2.635 17.978 0.001 -0.011 -0.005 0.000
2055 4 10.281 1.177 17.817 -0.006 0.003 -0.003 0.000
2056 4 10.285 2.781 16.052 0.002 -0.000 0.001 0.000
2057 4 12.227 0.809 16.266 0.005 -0.002 0.002 0.000
2058 4 12.351 2.957 17.795 -0.002 -0.009 -0.007 0.000
2059 4 14.386 0.729 18.429 0.003 -0.005 -0.003 0.000
2060 4 14.097 2.694 16.254 -0.004 0.015 -0.002 0.000
2083 4 -1.590 5.010 18.235 0.009 -0.005 0.003 -0.000
2084 4 -1.019 6.653 16.380 0.001 -0.002 0.003 -0.000
2085 4 0.923 4.465 16.135 0.005 0.006 -0.001 0.000
2086 4 0.738 6.176 17.897 -0.005 0.014 -0.006 0.000
2087 4 2.625 4.527 17.847 -0.013 0.008 0.005 0.000
2088 4 2.793 6.544 16.019 0.002 0.001 0.005 0.000
2089 4 4.586 4.389 16.079 -0.007 0.001 -0.019 0.000
2090 4 4.764 6.167 18.091 -0.002 0.004 -0.007 0.000
2091 4 6.377 4.089 18.070 0.006 -0.002 -0.011 0.000
2092 4 6.639 6.374 16.304 -0.002 0.002 0.000 0.000
2093 4 8.408 4.939 16.091 -0.003 -0.003 -0.007 0.000
2094 4 8.264 6.508 18.365 -0.002 -0.001 0.000 -0.000
2095 4 10.340 4.738 17.942 0.005 0.002 0.002 0.000
2096 4 10.349 6.763 16.531 -0.007 0.008 0.010 0.000
2097 4 12.209 4.762 16.211 0.006 -0.002 -0.002 0.000
2098 4 12.542 7.184 17.574 0.001 0.002 0.001 -0.000
2099 4 14.249 4.790 17.585 -0.009 -0.005 -0.001 -0.000
2100 4 14.613 6.206 16.141 0.002 -0.004 0.002 0.000
2123 4 -1.247 8.147 18.230 -0.003 0.005 0.008 0.000
2124 4 -0.984 10.312 15.706 0.000 -0.001 -0.005 0.000
2125 4 0.741 8.230 16.419 -0.003 0.003 -0.005 -0.000
2126 4 0.509 9.968 17.962 -0.001 -0.009 -0.010 -0.000
2127 4 2.604 8.091 17.881 -0.009 0.006 0.006 0.000
2128 4 2.608 9.851 16.237 0.006 -0.012 -0.003 0.000
2129 4 5.047 8.557 16.332 -0.006 -0.005 0.003 0.000
2130 4 4.407 9.981 18.014 0.003 -0.008 0.007 -0.000
2131 4 6.624 8.896 18.259 -0.004 -0.006 0.008 -0.000
2132 4 6.504 10.538 16.047 -0.017 0.003 -0.000 -0.000
2133 4 8.371 8.287 16.536 -0.004 0.005 -0.002 0.000
2134 4 8.461 10.847 17.773 -0.005 0.003 -0.002 -0.000
2135 4 10.528 8.707 17.941 -0.003 -0.012 0.003 -0.000
2136 4 10.472 10.601 16.265 0.008 0.007 0.002 0.000
2137 4 12.366 8.842 15.585 0.003 -0.003 -0.005 0.000
2138 4 12.401 10.699 18.082 0.011 0.005 -0.005 0.000
2139 4 14.607 8.137 17.251 -0.002 -0.004 -0.011 0.000
2140 4 14.237 10.859 15.958 -0.002 -0.006 -0.006 0.000
2163 4 -1.040 12.256 18.087 0.004 0.000 -0.001 -0.000
2164 4 -1.364 14.268 16.150 0.010 -0.002 -0.014 -0.000
2165 4 0.840 12.249 16.147 -0.008 0.002 -0.002 -0.000
2166 4 0.383 14.219 18.137 0.009 0.007 -0.006 0.000
2167 4 2.078 12.228 18.311 -0.006 -0.009 -0.002 -0.000
2168 4 2.573 14.276 16.434 0.003 0.001 0.001 0.000
2169 4 4.176 12.355 16.295 -0.001 -0.003 0.002 0.000
2170 4 4.556 14.213 18.204 -0.001 -0.004 -0.006 -0.000
2171 4 6.201 12.057 18.153 0.006 0.005 -0.000 -0.000
2172 4 6.175 14.088 16.310 0.008 -0.001 -0.009 0.000
2173 4 8.304 12.673 16.070 -0.011 0.008 0.002 0.000
2174 4 8.097 14.117 18.102 0.011 -0.009 -0.005 -0.000
2175 4 10.289 12.547 18.480 0.005 -0.009 0.001 0.000
2176 4 10.233 14.437 16.227 -0.008 -0.006 0.001 0.000
2177 4 12.162 12.578 15.702 0.002 0.001 0.010 0.000
2178 4 12.146 14.207 18.396 0.004 0.008 0.002 0.000
2179 4 14.526 12.393 17.646 0.002 -0.009 -0.011 0.000
2180 4 14.145 14.318 15.656 -0.008 -0.003 -0.004 0.000
2404 4 -1.196 -0.533 19.800 -0.006 -0.001 -0.008 0.000
2408 4 2.532 -1.277 19.677 0.004 -0.003 0.009 0.000
2412 4 6.374 -1.509 20.005 0.001 -0.005 -0.006 0.000
2416 4 10.180 -1.046 19.919 -0.002 0.003 -0.009 -0.000
2420 4 14.260 -1.432 19.978 0.009 0.002 0.005 0.000
2444 4 -1.246 2.811 19.809 -0.003 -0.001 0.003 -0.000
2445 4 1.022 0.757 19.981 -0.009 -0.002 0.007 -0.000
2448 4 2.556 2.785 19.874 -0.005 0.000 0.004 -0.000
2449 4 4.572 0.499 19.795 0.002 0.002 -0.005 -0.000
2452 4 6.356 2.433 19.825 -0.010 0.003 -0.008 0.000
2453 4 8.085 0.199 19.966 0.010 0.002 -0.001 0.000
2456 4 10.892 2.398 20.211 -0.002 -0.004 0.001 0.000
2457 4 12.422 0.549 20.001 0.003 -0.008 0.007 -0.000
2460 4 14.363 3.110 19.647 -0.009 -0.007 -0.002 -0.000
2484 4 -1.874 6.528 20.304 -0.004 -0.004 0.012 -0.000
2485 4 0.713 4.690 19.755 -0.011 -0.007 0.009 -0.000
2488 4 2.823 6.868 19.863 -0.005 0.005 0.009 0.000
2489 4 4.510 4.479 19.757 -0.004 -0.006 -0.005 0.000
2492 4 6.251 6.526 20.111 0.004 0.000 0.004 0.000
2493 4 8.413 4.427 19.917 -0.001 0.001 -0.016 0.000
2496 4 10.520 6.534 19.726 -0.003 0.001 -0.001 0.000
2497 4 12.390 4.825 20.049 0.012 0.008 -0.003 -0.000
2500 4 14.358 6.371 19.535 -0.003 -0.004 0.002 -0.000
2524 4 -1.203 10.040 20.044 -0.007 0.004 -0.001 -0.000
2525 4 0.727 8.272 19.831 -0.005 0.004 -0.000 -0.000
2528 4 2.810 10.129 19.939 -0.008 -0.009 -0.003 -0.000
2529 4 4.725 8.390 20.158 -0.002 -0.005 0.011 -0.000
2532 4 6.287 10.294 20.347 -0.004 0.011 0.001 -0.000
2533 4 8.328 8.547 19.973 -0.002 0.003 0.005 -0.000
2536 4 10.412 10.569 19.946 -0.000 -0.000 -0.005 -0.000
2537 4 12.288 8.701 19.614 -0.000 0.003 0.003 -0.000
2540 4 14.435 10.597 19.634 0.000 0.003 -0.006 -0.000
2564 4 -0.831 13.813 20.115 0.004 0.002 -0.002 -0.000
2565 4 0.522 11.619 20.268 0.000 -0.005 -0.004 -0.000
2568 4 2.553 14.092 19.809 0.003 -0.006 -0.009 0.000
2569 4 4.380 12.028 20.039 -0.003 -0.016 0.001 -0.000
2572 4 6.181 14.012 20.118 -0.001 -0.004 -0.010 -0.000
2573 4 8.080 12.551 19.942 0.005 -0.000 0.010 -0.000
2576 4 9.861 14.414 20.200 0.005 0.001 -0.004 -0.000
2577 4 12.113 12.044 20.236 -0.001 0.001 0.002 0.000
2580 4 14.024 13.791 19.911 0.006 0.000 -0.005 0.000
2483 4 -1.122 4.512 21.697 0.011 0.003 0.004 -0.000
2446 4 1.014 3.073 21.951 -0.009 0.002 0.011 -0.000
2486 4 0.456 6.727 21.587 0.007 0.002 -0.004 -0.000
2458 4 12.324 2.453 21.922 -0.008 -0.000 0.000 0.000
2571 4 5.990 12.160 21.942 0.001 0.009 -0.006 -0.000
2563 4 -1.326 11.632 21.821 0.009 -0.002 -0.007 0.000
2498 4 12.038 6.747 21.815 -0.000 0.016 -0.012 -0.000
2578 4 12.372 14.326 21.771 -0.006 0.005 -0.004 -0.000
2530 4 4.278 10.187 22.110 -0.007 -0.012 -0.003 -0.000
2459 4 14.306 0.895 22.020 -0.000 -0.005 0.003 -0.000
2570 4 4.066 14.110 22.000 0.014 0.005 0.007 0.000
2450 4 4.541 2.287 21.649 -0.002 -0.005 0.006 0.000
2451 4 6.642 0.986 21.982 0.002 -0.004 -0.000 -0.000
2491 4 6.531 4.566 21.794 0.006 0.011 -0.006 0.000
2539 4 14.278 8.359 21.108 0.010 0.002 0.002 -0.000
2494 4 8.330 6.623 21.536 -0.002 -0.000 0.000 0.000
2447 4 2.455 1.080 21.792 0.014 -0.003 0.001 -0.000
2534 4 8.459 10.796 21.697 -0.006 0.000 -0.002 0.000
2495 4 10.306 4.651 21.668 0.008 0.002 0.010 0.000
2523 4 -1.613 8.897 22.130 -0.007 0.003 -0.000 -0.000
2455 4 10.305 0.648 22.119 -0.004 -0.000 -0.012 -0.000
2575 4 10.430 12.634 21.964 -0.009 -0.006 -0.005 0.000
2418 4 12.283 -1.113 21.967 0.006 0.006 -0.006 -0.000
2406 4 0.616 -1.109 21.638 -0.005 0.002 -0.006 0.000
2574 4 8.173 14.023 22.241 0.004 0.005 -0.004 -0.000
2538 4 12.630 10.216 21.817 -0.009 -0.013 -0.007 -0.000
2535 4 10.239 8.731 21.291 -0.003 -0.004 0.005 -0.000
2526 4 0.655 9.938 22.164 -0.005 -0.010 0.002 -0.000
2531 4 6.656 8.412 21.896 -0.011 0.001 0.003 -0.000
1203 4 -1.031 -2.916 10.255 -0.001 -0.004 -0.005 0.000
2527 4 2.528 8.252 21.994 -0.005 -0.006 -0.006 -0.000
2003 4 -1.284 -2.529 18.017 0.001 -0.007 0.001 -0.000
2499 4 14.117 4.391 21.768 -0.001 -0.000 -0.010 -0.000
2011 4 6.489 -2.939 17.868 0.006 -0.002 0.004 -0.000
2487 4 2.642 4.937 21.898 0.006 -0.005 -0.004 -0.000
1607 4 2.831 -2.890 13.935 0.009 -0.012 0.003 0.000
1722 4 -2.827 10.389 13.738 -0.008 0.000 -0.003 0.000
2405 4 0.868 -2.692 19.942 -0.005 -0.006 0.004 0.000
1605 4 0.591 -2.803 12.006 0.014 -0.000 -0.002 -0.000
2566 4 0.956 14.012 21.958 -0.006 0.001 -0.001 -0.000
1211 4 6.377 -2.880 10.352 -0.004 -0.001 -0.008 -0.000
2490 4 4.759 6.630 22.063 0.007 0.004 0.013 0.000
20 4 14.387 -0.999 -2.728 0.003 0.001 -0.006 0.000
7 4 2.459 -2.870 -1.068 -0.001 -0.004 0.002 -0.000
805 4 0.800 -2.736 4.464 -0.007 0.002 -0.016 0.000
2443 4 -0.842 1.645 22.001 0.000 0.003 0.001 0.000
2403 4 -1.129 -2.978 21.550 -0.004 0.000 -0.005 -0.000
1213 4 8.539 -2.533 8.499 0.011 -0.013 -0.006 0.000
2579 4 14.576 12.214 21.750 0.005 0.001 -0.006 -0.000
172 4 6.598 14.137 -2.934 -0.003 -0.003 -0.004 -0.000
2009 4 4.407 -2.798 15.718 0.004 -0.003 -0.001 0.000
815 4 10.326 -2.748 6.601 0.001 -0.000 -0.009 0.000
2410 4 4.391 -0.528 21.698 0.006 -0.007 -0.007 0.000
102 4 16.052 6.644 -1.215 0.008 -0.011 0.001 -0.000
2203 4 -1.507 15.900 18.253 0.001 0.003 -0.008 -0.000
2007 4 2.440 -2.882 17.758 -0.003 -0.009 -0.002 0.000
1205 4 0.710 -2.376 8.365 -0.002 0.001 0.010 -0.000
2015 4 10.365 -2.816 17.427 -0.005 -0.010 -0.011 0.000
1209 4 4.455 -2.770 8.509 0.004 -0.008 0.001 -0.000
1762 4 -2.748 14.327 14.164 -0.009 -0.006 0.004 0.000
2454 4 8.705 2.769 21.398 -0.009 0.006 -0.005 0.000
501 4 16.059 4.748 0.943 0.010 -0.014 -0.009 0.000
2 4 -2.676 -0.840 -1.285 -0.005 -0.002 0.001 -0.000
2613 4 8.027 15.753 20.261 -0.000 0.004 0.006 -0.000
1403 4 -1.263 16.037 10.849 0.004 0.002 -0.008 -0.000
2414 4 8.451 -1.208 22.074 0.001 0.002 -0.004 -0.000
1242 4 -3.003 2.886 10.772 -0.002 -0.003 0.002 0.000
613 4 8.360 16.023 0.784 0.002 0.012 -0.016 0.000
2215 4 10.423 15.776 18.142 -0.000 -0.002 -0.006 0.000
1615 4 10.492 -2.874 14.088 0.000 -0.010 -0.003 0.000
2407 4 2.790 -2.745 22.020 -0.002 0.002 -0.004 0.000
16 4 10.370 -0.754 -2.768 -0.005 0.005 0.005 -0.000
541 4 15.936 8.682 0.953 0.007 -0.006 -0.011 -0.000
962 4 -2.926 14.109 6.740 -0.008 -0.004 0.000 -0.000
2219 4 14.042 16.000 17.948 0.004 0.004 0.011 0.000
2611 4 6.422 15.741 22.280 0.001 -0.003 -0.002 -0.000
813 4 8.197 -2.722 4.609 0.001 -0.001 -0.009 0.000
1241 4 -2.810 1.213 8.773 -0.011 0.006 0.002 0.000
2609 4 4.922 15.967 20.161 -0.002 0.002 -0.003 -0.000
2615 4 10.318 15.945 22.364 0.006 0.003 0.006 -0.000
1807 4 2.537 16.058 14.443 -0.007 0.003 0.008 0.000
2017 4 12.254 -2.915 16.015 0.009 -0.003 0.005 0.000
413 4 8.157 -2.830 0.431 -0.002 -0.003 0.002 -0.000
803 4 -0.973 -2.879 6.777 0.007 -0.004 0.014 0.000
1601 4 -3.009 -2.987 12.293 -0.003 0.001 -0.006 0.000
140 4 14.023 10.775 -2.968 -0.004 -0.002 -0.005 -0.000