ITEM: TIMESTEP
9000
ITEM: NUMBER OF ATOMS
32000
ITEM: BOX BOUNDS pp pp pp
-3.125102 73.605102
-2.980278 73.460278
-2.988088 73.468088
ITEM: ATOMS id type x y z vx vy vz q
6 4 0.473 -0.864 -1.015 0.000 0.001 -0.002 -0.000
10 4 4.793 -0.990 -1.063 0.002 -0.005 -0.001 0.000
14 4 8.240 -0.871 -0.853 0.011 0.001 -0.000 -0.000
18 4 12.162 -0.898 -1.130 0.001 -0.012 0.007 -0.000
43 4 -1.049 1.103 -1.560 0.007 0.009 -0.004 0.000
46 4 0.940 2.942 -1.507 -0.000 -0.001 0.004 0.000
47 4 2.919 0.700 -1.267 -0.003 -0.002 -0.011 0.000
50 4 4.319 2.846 -1.425 0.003 -0.005 0.004 0.000
51 4 6.538 1.050 -0.864 -0.005 0.005 -0.002 0.000
54 4 8.281 3.178 -1.270 -0.006 -0.006 -0.005 -0.000
55 4 10.074 0.741 -1.492 0.002 -0.001 0.000 0.000
58 4 12.603 2.660 -1.134 -0.004 -0.001 -0.004 0.000
59 4 14.525 0.525 -0.741 -0.006 0.005 0.008 0.000
83 4 -0.641 4.964 -1.279 -0.000 0.007 -0.004 0.000
86 4 1.195 6.542 -0.890 0.000 -0.002 -0.007 0.000
87 4 2.782 4.780 -1.418 0.001 0.001 0.004 -0.000
90 4 4.564 6.910 -1.283 -0.002 0.004 -0.001 -0.000
91 4 6.342 5.142 -1.267 -0.002 0.008 0.006 -0.000
94 4 8.265 7.112 -1.380 -0.001 -0.002 0.002 -0.000
95 4 10.109 5.007 -1.083 -0.004 -0.004 0.008 -0.000
98 4 12.337 6.811 -1.226 0.009 -0.001 0.002 -0.000
99 4 14.346 5.043 -1.333 0.008 0.002 -0.008 0.000
123 4 -1.099 8.464 -0.973 0.000 -0.014 0.004 0.000
126 4 0.770 10.790 -0.971 0.002 0.001 0.005 0.000
127 4 2.813 8.725 -0.836 -0.002 -0.012 -0.004 0.000
130 4 4.484 10.653 -1.388 0.002 0.006 -0.003 -0.000
131 4 6.436 8.913 -1.256 0.002 -0.010 -0.001 -0.000
134 4 8.714 10.684 -1.294 0.005 -0.003 -0.003 0.000
135 4 10.271 8.593 -1.126 -0.000 0.007 0.008 0.000
138 4 12.182 10.562 -1.506 0.002 -0.005 -0.009 0.000
139 4 14.038 8.308 -1.173 0.007 -0.005 0.000 0.000
163 4 -1.417 12.482 -0.689 0.002 0.005 -0.013 0.000
166 4 0.672 13.886 -0.809 -0.008 0.005 0.003 0.000
167 4 2.477 12.360 -1.107 -0.000 0.007 0.001 0.000
170 4 4.815 14.236 -0.915 0.003 -0.018 -0.003 -0.000
171 4 6.657 12.265 -0.963 0.002 0.005 -0.005 0.000
174 4 8.349 14.243 -1.143 -0.012 -0.011 0.004 0.000
175 4 9.995 12.649 -1.241 -0.002 0.003 -0.012 0.000
178 4 11.845 14.014 -1.526 -0.007 0.005 -0.016 0.000
179 4 14.202 12.449 -0.948 0.007 -0.002 -0.008 0.000
404 4 -1.033 -1.109 0.795 0.006 0.004 0.008 -0.000
406 4 1.037 -0.948 2.851 0.007 0.005 0.011 -0.000
408 4 2.495 -1.228 0.563 -0.006 -0.002 0.005 -0.000
410 4 4.249 -1.077 2.718 -0.002 -0.001 0.001 0.000
412 4 6.352 -0.835 0.776 0.000 0.008 0.001 0.000
414 4 8.420 -0.823 2.619 -0.004 0.000 -0.002 -0.000
416 4 10.425 -0.680 0.862 0.017 0.004 -0.003 -0.000
418 4 12.380 -0.837 2.884 -0.001 0.007 0.018 -0.000
420 4 14.656 -1.076 1.025 0.010 0.008 -0.009 -0.000
443 4 -1.521 0.801 3.177 0.002 -0.002 0.004 -0.000
444 4 -1.030 2.811 0.341 -0.007 -0.007 0.013 0.000
445 4 1.033 1.038 0.811 -0.006 -0.003 0.003 0.000
446 4 0.399 2.575 2.758 -0.005 -0.007 0.010 -0.000
447 4 2.694 0.960 3.128 0.007 0.003 0.011 0.000
448 4 3.020 2.908 0.858 0.001 0.004 0.004 0.000
449 4 4.555 0.897 0.968 -0.003 -0.002 0.001 0.000
450 4 4.647 3.267 2.831 0.007 0.013 -0.001 0.000
451 4 6.507 1.092 2.695 0.003 -0.001 0.004 0.000
452 4 6.332 3.100 0.865 0.006 -0.005 -0.002 0.000
453 4 8.280 1.479 0.865 0.006 0.009 0.003 0.000
454 4 8.467 3.170 2.117 0.006 -0.008 -0.002 0.000
455 4 10.228 0.675 3.179 -0.004 -0.000 -0.004 0.000
456 4 10.670 2.199 0.683 -0.000 0.003 0.005 -0.000
457 4 12.508 0.914 0.659 -0.003 -0.007 0.018 0.000
458 4 12.549 2.933 2.691 0.001 0.002 0.000 0.000
459 4 14.308 0.779 2.623 -0.007 -0.002 -0.001 0.000
460 4 14.363 2.527 0.611 -0.008 -0.002 0.009 -0.000
483 4 -1.283 4.591 2.729 -0.006 -0.002 0.003 -0.000
484 4 -1.006 6.433 0.744 0.010 0.005 -0.009 0.000
485 4 0.815 4.599 1.182 0.000 0.009 0.012 0.000
486 4 0.559 6.437 2.984 -0.015 0.000 -0.002 -0.000
487 4 2.692 4.884 2.933 0.002 0.002 0.001 -0.000
488 4 2.493 6.589 0.887 0.003 -0.004 -0.001 0.000
489 4 4.350 4.879 0.222 0.003 0.006 -0.000 0.000
490 4 4.418 7.086 2.644 0.011 0.007 -0.006 0.000
491 4 6.577 5.050 2.640 0.012 0.001 -0.006 -0.000
492 4 6.655 6.931 0.550 -0.008 -0.010 0.002 -0.000
493 4 8.334 5.092 0.817 -0.009 0.006 -0.000 -0.000
494 4 8.635 6.692 2.763 -0.004 -0.007 -0.000 0.000
495 4 10.411 4.865 2.364 0.005 0.006 0.002 -0.000
496 4 10.268 6.994 0.761 -0.002 -0.003 -0.006 0.000
497 4 12.347 4.517 0.280 0.010 -0.002 -0.002 -0.000
498 4 12.350 6.412 2.259 0.007 -0.000 -0.005 0.000
499 4 14.403 4.555 2.241 0.002 -0.007 0.014 0.000
500 4 14.486 6.815 0.556 0.008 0.001 -0.002 0.000
523 4 -1.177 8.123 2.735 -0.005 -0.006 -0.022 0.000
524 4 -1.605 10.316 0.995 0.006 -0.011 -0.005 -0.000
525 4 0.676 8.730 0.919 0.005 0.005 0.010 0.000
526 4 0.563 10.774 2.681 0.003 0.001 0.001 -0.000
527 4 2.548 8.709 2.489 -0.004 0.001 -0.000 0.000
528 4 2.491 10.689 0.584 -0.003 -0.001 -0.001 0.000
529 4 4.617 8.581 0.434 0.002 0.007 -0.008 0.000
530 4 4.454 10.256 2.105 0.001 -0.001 0.010 -0.000
531 4 6.649 8.403 2.321 0.005 -0.005 -0.003 0.000
532 4 6.468 10.531 0.635 -0.006 0.002 -0.001 0.000
533 4 8.499 9.021 0.911 0.006 -0.001 0.012 0.000
534 4 8.450 10.704 2.797 0.001 0.006 -0.004 0.000
535 4 10.696 8.593 2.707 0.007 -0.014 -0.004 0.000
536 4 10.411 10.574 0.839 0.009 0.000 0.002 0.000
537 4 12.382 8.854 0.659 -0.001 -0.000 0.002 0.000
538 4 12.442 10.606 2.707 0.005 0.000 -0.004 0.000
539 4 14.656 9.079 2.713 -0.013 -0.015 -0.004 0.000
540 4 14.379 10.365 0.375 -0.002 0.006 -0.008 0.000
563 4 -1.278 12.158 2.483 -0.004 0.003 0.005 -0.000
564 4 -1.314 14.376 1.265 0.004 -0.007 0.003 -0.000
565 4 0.505 12.362 0.949 0.006 0.004 0.011 0.000
566 4 0.547 14.150 2.901 -0.005 0.006 -0.001 -0.000
567 4 2.681 12.237 2.662 0.004 -0.003 -0.006 -0.000
568 4 2.721 14.267 0.790 -0.002 -0.006 0.004 0.000
569 4 4.633 12.483 1.081 0.009 0.001 -0.010 0.000
570 4 4.421 14.372 2.910 0.015 -0.004 -0.002 -0.000
571 4 6.556 12.374 2.499 -0.002 -0.004 0.003 -0.000
572 4 6.794 14.326 0.905 0.004 0.008 -0.003 0.000
573 4 8.664 12.494 0.803 0.001 0.000 0.004 -0.000
574 4 8.821 14.159 2.882 -0.012 -0.009 0.004 -0.000
575 4 10.448 12.237 2.613 -0.010 -0.003 -0.003 -0.000
576 4 10.687 13.944 0.730 -0.003 0.007 0.008 0.000
577 4 12.273 11.966 0.418 -0.004 -0.014 -0.006 -0.000
578 4 12.633 13.974 2.662 0.004 -0.000 0.008 -0.000
579 4 14.369 12.169 2.237 -0.005 0.004 -0.002 -0.000
580 4 14.048 14.518 0.532 -0.003 -0.004 -0.001 -0.000
804 4 -0.827 -1.254 4.788 0.002 0.007 0.003 0.000
806 4 1.180 -0.735 6.607 -0.004 -0.009 -0.000 -0.000
808 4 2.739 -0.924 4.666 0.008 -0.005 0.003 -0.000
810 4 4.939 -0.548 6.316 0.003 0.003 0.003 -0.000
812 4 6.177 -0.555 4.286 0.001 -0.002 0.007 0.000
814 4 8.098 -1.060 6.637 0.003 -0.001 0.001 -0.000
816 4 10.116 -0.960 5.177 0.008 0.008 -0.004 -0.000
818 4 12.220 -0.883 6.491 0.000 -0.007 0.005 -0.000
820 4 14.311 -1.199 4.848 -0.006 -0.013 -0.004 -0.000
843 4 -0.595 1.527 6.734 -0.000 -0.000 0.002 0.000
844 4 -1.476 2.832 4.854 0.004 0.006 0.005 -0.000
845 4 0.633 0.730 4.554 0.008 -0.004 -0.004 -0.000
846 4 1.062 2.961 6.967 0.001 -0.002 -0.016 -0.000
847 4 2.656 1.091 6.458 0.006 0.008 -0.016 -0.000
848 4 2.661 2.662 4.537 -0.001 0.008 -0.008 -0.000
849 4 4.807 1.033 4.503 0.010 -0.008 0.009 -0.000
850 4 4.606 2.948 5.945 -0.003 -0.007 -0.011 0.000
851 4 6.663 1.064 6.371 -0.003 -0.005 0.005 -0.000
852 4 6.639 3.402 4.477 0.012 -0.002 0.007 0.000
853 4 8.462 1.329 4.499 0.006 0.001 0.014 -0.000
854 4 8.691 3.149 6.643 0.012 0.009 0.003 0.000
855 4 10.497 1.246 6.199 -0.006 -0.006 0.003 0.000
856 4 10.518 2.740 4.431 -0.005 -0.009 -0.001 0.000
857 4 12.339 0.803 4.425 -0.002 -0.004 -0.008 0.000
858 4 12.748 2.699 6.385 0.004 -0.000 0.005 0.000
859 4 14.303 0.617 6.349 -0.005 0.007 0.001 0.000
860 4 14.441 2.587 4.451 -0.002 0.007 -0.005 0.000
883 4 -0.943 4.656 6.399 -0.004 -0.002 -0.005 -0.000
884 4 -0.965 6.567 4.925 0.006 -0.006 -0.000 -0.000
885 4 0.630 4.387 4.457 0.000 -0.006 -0.008 -0.000
886 4 0.825 6.487 6.481 0.007 0.012 -0.001 -0.000
887 4 2.828 4.825 6.703 0.002 0.003 0.001 -0.000
888 4 2.344 6.623 4.622 0.004 0.007 -0.003 -0.000
889 4 4.606 5.203 4.628 0.000 0.007 0.005 -0.000
890 4 4.718 7.055 6.596 -0.004 -0.007 -0.006 0.000
891 4 6.325 4.744 6.337 -0.012 0.005 -0.010 0.000
892 4 6.841 6.607 4.513 0.004 0.008 -0.001 0.000
893 4 8.514 4.564 4.188 -0.002 -0.001 -0.013 -0.000
894 4 8.496 6.403 6.081 0.004 -0.004 -0.009 0.000
895 4 10.638 4.734 6.447 -0.005 -0.003 0.010 0.000
896 4 10.570 6.815 4.436 0.014 0.011 -0.005 0.000
897 4 12.224 4.785 4.498 -0.009 -0.001 0.006 0.000
898 4 12.636 6.910 6.348 0.003 -0.000 0.001 -0.000
899 4 14.468 4.828 6.335 -0.002 0.006 -0.007 0.000
900 4 14.316 6.672 4.167 -0.001 -0.001 0.000 0.000
923 4 -1.101 8.342 6.560 0.001 -0.012 0.008 -0.000
924 4 -1.237 10.459 4.902 -0.002 -0.000 -0.009 0.000
925 4 0.639 8.445 4.460 0.011 -0.006 -0.010 -0.000
926 4 0.807 10.753 6.144 -0.004 -0.012 -0.002 0.000
927 4 2.490 8.620 6.489 0.003 -0.017 0.009 -0.000
928 4 2.755 10.587 4.389 0.001 0.011 0.002 -0.000
929 4 4.530 8.632 4.223 0.006 0.006 0.000 -0.000
930 4 4.797 10.326 6.475 0.005 0.003 0.005 -0.000
931 4 6.917 8.792 6.133 -0.004 -0.005 0.004 0.000
932 4 7.038 10.496 4.657 0.008 0.006 -0.000 -0.000
933 4 8.779 8.597 4.633 0.002 0.007 0.004 0.000
934 4 8.908 10.266 6.504 -0.007 -0.004 -0.003 0.000
935 4 10.534 7.961 6.437 -0.004 -0.003 0.005 0.000
936 4 10.851 10.109 4.724 0.001 0.009 0.013 0.000
937 4 12.693 8.271 4.237 -0.005 0.003 0.007 0.000
938 4 12.728 10.581 6.322 -0.006 0.003 0.003 0.000
939 4 14.542 8.720 6.270 0.000 0.012 -0.002 -0.000
940 4 14.434 10.797 4.407 0.003 -0.002 0.003 0.000
963 4 -1.269 12.557 6.194 0.001 0.005 -0.011 0.000
964 4 -1.307 14.017 4.588 0.005 -0.005 -0.001 0.000
965 4 0.591 12.365 4.665 0.009 -0.009 0.009 0.000
966 4 0.721 14.064 6.175 0.017 -0.007 -0.002 0.000
967 4 2.764 12.433 6.415 0.000 -0.007 0.007 -0.000
968 4 2.508 14.074 4.349 0.006 -0.003 0.004 0.000
969 4 4.841 12.028 4.404 0.008 0.001 0.002 -0.000
970 4 4.476 14.115 6.156 -0.002 0.004 -0.001 0.000
971 4 6.724 12.233 6.174 0.005 -0.002 -0.006 -0.000
972 4 6.479 14.212 4.103 -0.003 0.001 -0.005 -0.000
973 4 9.019 12.196 4.644 -0.006 0.004 -0.008 -0.000
974 4 8.710 14.324 6.116 0.003 -0.004 0.005 -0.000
975 4 10.854 12.248 6.600 -0.005 0.000 -0.001 -0.000
976 4 10.877 13.870 4.553 0.008 -0.003 0.005 -0.000
977 4 12.400 12.253 4.352 -0.003 0.004 -0.007 -0.000
978 4 12.975 14.191 6.351 0.002 0.002 -0.014 0.000
979 4 14.518 12.185 6.414 0.001 -0.004 0.005 -0.000
980 4 14.760 13.885 4.447 0.004 -0.002 -0.004 -0.000
1204 4 -0.904 -0.632 8.020 -0.010 -0.002 -0.003 0.000
1206 4 0.716 -1.152 10.413 -0.003 -0.004 0.003 -0.000
1208 4 2.727 -0.903 8.479 0.003 -0.010 -0.001 -0.000
1210 4 4.588 -0.858 10.076 0.002 -0.004 0.002 -0.000
1212 4 6.416 -1.079 8.950 0.003 0.003 0.009 -0.000
1214 4 8.603 -0.684 10.544 0.009 -0.006 0.008 0.000
1216 4 10.229 -1.175 8.309 -0.003 0.005 -0.011 -0.000
1218 4 12.375 -0.700 10.229 0.000 0.007 0.004 -0.000
1220 4 14.331 -0.941 8.375 0.007 0.001 -0.011 -0.000
1243 4 -0.963 0.893 10.463 -0.006 0.001 -0.006 0.000
1244 4 -0.958 3.232 8.612 -0.005 0.005 0.009 -0.000
1245 4 0.786 0.959 8.402 0.008 0.003 -0.000 0.000
1246 4 0.880 2.651 10.168 -0.003 0.008 0.009 -0.000
1247 4 2.574 0.924 9.997 -0.002 -0.008 -0.003 -0.000
1248 4 2.912 3.027 8.619 0.004 0.013 -0.005 -0.000
1249 4 4.561 1.335 8.118 0.002 -0.004 0.010 -0.000
1250 4 4.512 2.982 10.469 -0.002 0.003 -0.003 0.000
1251 4 6.832 0.844 10.882 0.003 0.003 -0.004 -0.000
1252 4 6.395 3.009 8.514 0.002 -0.005 0.001 0.000
1253 4 8.470 0.750 8.521 -0.002 0.010 0.002 -0.000
1254 4 8.722 3.194 9.957 -0.002 0.003 -0.001 -0.000
1255 4 10.557 1.057 9.913 -0.008 0.005 -0.004 -0.000
1256 4 10.610 3.026 8.264 0.005 0.000 -0.002 -0.000
1257 4 12.473 1.363 8.645 0.007 -0.001 -0.003 0.000
1258 4 12.592 3.020 10.485 -0.002 0.008 -0.001 -0.000
1259 4 14.476 1.187 10.532 -0.006 0.004 -0.000 0.000
1260 4 14.514 3.060 8.756 -0.007 0.000 -0.013 -0.000
1283 4 -1.052 4.513 10.381 -0.003 -0.007 -0.002 -0.000
1284 4 -0.936 6.603 8.208 0.000 0.007 -0.003 -0.000
1285 4 1.079 4.710 8.677 -0.004 -0.004 -0.005 -0.000
1286 4 0.883 6.754 10.474 0.008 -0.006 0.008 -0.000
1287 4 2.554 4.664 10.739 -0.009 0.010 0.006 0.000
1288 4 2.710 6.928 8.791 0.001 0.001 0.004 0.000
1289 4 4.638 5.096 8.019 0.005 0.003 -0.003 0.000
1290 4 4.176 6.495 10.617 -0.006 -0.008 -0.004 0.000
1291 4 6.359 4.916 10.209 -0.006 0.004 0.002 0.000
1292 4 6.457 6.694 8.316 -0.003 -0.001 0.006 0.000
1293 4 8.361 5.236 8.222 0.002 0.002 0.001 -0.000
1294 4 8.362 6.324 10.597 -0.004 -0.008 0.002 0.000
1295 4 10.608 4.858 10.442 -0.001 -0.003 0.004 -0.000
1296 4 10.081 6.610 8.263 0.007 -0.000 0.008 -0.000
1297 4 12.633 4.764 8.218 0.003 0.005 -0.000 -0.000
1298 4 12.389 6.654 10.823 -0.002 0.004 0.011 -0.000
1299 4 14.380 4.997 10.219 -0.011 0.008 -0.001 -0.000
1300 4 14.532 6.787 8.149 0.008 0.008 -0.013 -0.000
1323 4 -0.738 8.587 10.064 0.001 0.013 0.002 -0.000
1324 4 -1.064 10.912 8.260 0.001 -0.001 0.001 0.000
1325 4 0.330 8.935 8.030 -0.005 -0.009 -0.006 -0.000
1326 4 0.551 11.035 10.190 0.000 -0.002 0.006 0.000
1327 4 2.482 8.669 10.525 -0.005 -0.007 -0.003 -0.000
1328 4 3.105 10.242 8.323 -0.007 0.002 -0.019 0.000
1329 4 4.933 8.851 8.355 -0.003 -0.005 -0.013 -0.000
1330 4 4.611 10.801 10.552 0.008 -0.011 -0.005 -0.000
1331 4 6.283 8.592 10.438 0.005 0.002 -0.010 0.000
1332 4 7.192 10.291 8.349 -0.001 -0.011 -0.007 0.000
1333 4 8.430 8.232 8.232 0.011 -0.002 -0.003 0.000
1334 4 9.012 10.438 10.022 -0.007 -0.009 -0.004 -0.000
1335 4 10.550 8.717 10.335 0.001 0.006 -0.002 -0.000
1336 4 10.875 10.375 8.374 0.008 0.002 -0.002 -0.000
1337 4 12.317 8.282 8.675 0.006 0.002 -0.004 -0.000
1338 4 12.495 10.350 10.520 0.014 0.010 -0.003 -0.000
1339 4 14.289 8.485 10.137 0.001 -0.003 0.002 -0.000
1340 4 14.633 10.652 8.441 -0.006 -0.007 0.007 0.000
1363 4 -1.754 12.063 10.318 -0.008 -0.013 0.007 0.000
1364 4 -1.397 13.686 8.299 -0.005 0.004 -0.001 0.000
1365 4 1.052 12.681 8.415 -0.006 -0.003 0.011 0.000
1366 4 0.626 14.286 10.251 -0.003 0.016 -0.009 0.000
1367 4 2.558 12.557 10.470 -0.004 0.009 -0.006 -0.000
1368 4 2.661 14.285 8.496 0.008 0.003 0.006 0.000
1369 4 4.452 12.534 8.415 -0.011 0.011 0.005 -0.000
1370 4 4.522 13.792 10.650 0.009 -0.004 -0.006 0.000
1371 4 6.763 12.134 10.081 0.006 0.006 0.000 -0.000
1372 4 6.669 14.126 8.010 0.010 -0.003 -0.004 -0.000
1373 4 8.748 12.447 7.885 0.002 0.004 -0.001 -0.000
1374 4 8.219 14.446 10.133 0.005 0.003 0.005 0.000
1375 4 10.403 12.094 10.278 -0.007 0.003 -0.006 -0.000
1376 4 10.796 13.998 8.387 0.003 -0.008 -0.003 -0.000
1377 4 12.756 12.175 8.248 -0.003 0.001 0.004 -0.000
1378 4 12.369 13.997 10.554 0.007 -0.001 -0.001 -0.000
1379 4 14.228 12.231 10.276 0.000 0.000 -0.001 -0.000
1380 4 14.129 14.324 8.509 -0.012 0.000 -0.002 0.000
1604 4 -1.254 -0.859 12.579 -0.002 0.007 -0.003 -0.000
1606 4 0.460 -0.733 14.359 0.000 -0.000 0.001 0.000
1608 4 2.940 -0.928 11.826 -0.001 0.009 -0.002 -0.000
1610 4 4.199 -1.122 14.204 0.002 0.007 -0.003 -0.000
1612 4 6.114 -1.037 12.167 0.003 -0.003 -0.002 0.000
1614 4 8.660 -0.915 13.943 0.003 0.004 -0.009 0.000
1616 4 10.561 -0.741 12.485 -0.012 0.001 -0.005 0.000
1618 4 12.549 -0.643 14.222 0.009 -0.003 -0.006 0.000
1620 4 14.055 -0.966 12.141 0.002 -0.001 0.002 -0.000
1643 4 -1.417 1.047 14.459 -0.003 -0.001 0.004 0.000
1644 4 -0.984 2.354 12.352 0.002 -0.003 0.003 -0.000
1645 4 0.832 0.717 12.071 0.002 0.000 0.001 -0.000
1646 4 0.627 2.557 14.138 -0.002 -0.004 0.002 0.000
1647 4 2.618 0.734 14.089 0.003 0.012 -0.003 0.000
1648 4 2.574 2.549 12.606 -0.008 0.005 0.004 0.000
1649 4 4.517 1.153 11.772 0.008 -0.003 -0.003 0.000
1650 4 4.966 2.438 13.518 0.000 0.001 -0.008 0.000
1651 4 7.125 1.205 13.674 0.008 0.004 0.006 0.000
1652 4 6.574 3.054 11.907 -0.010 -0.003 0.006 0.000
1653 4 9.010 1.656 11.855 0.002 0.001 -0.005 -0.000
1654 4 8.508 3.147 13.985 0.000 -0.004 0.002 0.000
1655 4 10.760 1.405 13.814 0.009 -0.002 -0.002 -0.000
1656 4 10.591 3.342 12.424 0.004 -0.007 -0.001 -0.000
1657 4 12.487 1.040 12.106 -0.004 0.003 0.008 0.000
1658 4 12.642 2.888 14.139 0.004 -0.014 0.010 0.000
1659 4 14.290 0.829 14.116 -0.000 0.008 -0.005 0.000
1660 4 14.178 2.966 12.406 0.008 0.012 0.004 -0.000
1683 4 -1.290 4.432 14.307 0.004 -0.005 -0.002 -0.000
1684 4 -1.263 6.516 12.458 -0.005 -0.000 -0.002 -0.000
1685 4 0.835 4.365 12.311 0.002 0.001 0.011 -0.000
1686 4 0.718 6.145 13.757 -0.004 0.008 -0.000 0.000
1687 4 2.944 4.947 13.976 -0.012 0.001 0.006 0.000
1688 4 2.634 6.851 12.288 -0.005 -0.000 -0.005 0.000
1689 4 4.485 4.747 12.315 0.002 0.005 -0.004 0.000
1690 4 4.756 6.959 13.771 0.004 0.003 -0.000 0.000
1691 4 6.413 4.563 13.792 0.002 -0.000 0.008 0.000
1692 4 6.445 6.594 12.248 -0.008 -0.009 -0.002 0.000
1693 4 8.370 4.371 11.999 0.003 -0.004 -0.001 -0.000
1694 4 8.357 6.511 13.500 -0.016 -0.002 0.015 0.000
1695 4 10.715 4.885 14.194 0.000 -0.001 0.004 -0.000
1696 4 10.794 6.866 12.258 0.000 -0.002 0.005 -0.000
1697 4 12.568 4.925 12.515 -0.004 0.007 0.008 -0.000
1698 4 12.851 6.837 14.184 0.005 0.000 -0.003 0.000
1699 4 14.576 4.935 14.067 0.002 0.003 -0.009 0.000
1700 4 14.594 6.680 12.121 -0.001 0.002 -0.007 -0.000
1723 4 -1.202 8.294 14.261 0.012 0.003 -0.000 0.000
1724 4 -1.146 10.459 12.391 -0.004 -0.001 -0.000 0.000
1725 4 0.687 8.641 12.300 -0.004 0.001 -0.002 0.000
1726 4 0.562 11.000 14.365 0.002 -0.003 0.004 0.000
1727 4 2.338 8.827 14.099 -0.012 0.007 0.005 -0.000
1728 4 2.447 10.901 12.378 0.005 0.004 0.005 0.000
1729 4 4.299 8.836 11.956 -0.000 0.001 0.002 -0.000
1730 4 4.548 10.456 14.006 -0.013 0.001 -0.004 0.000
1731 4 6.702 8.591 13.720 -0.001 0.008 -0.006 -0.000
1732 4 6.470 10.548 12.016 0.002 0.008 0.006 -0.000
1733 4 8.675 8.508 11.759 -0.001 -0.001 -0.005 -0.000
1734 4 8.546 10.312 13.972 -0.011 -0.008 0.005 0.000
1735 4 10.501 8.298 14.218 -0.002 -0.001 0.002 -0.000
1736 4 10.754 10.067 12.304 -0.000 -0.001 0.003 -0.000
1737 4 12.803 8.680 12.256 -0.013 -0.001 0.003 0.000
1738 4 12.228 10.242 14.306 0.006 0.003 -0.003 0.000
1739 4 14.379 8.738 14.284 0.006 -0.003 0.007 0.000
1740 4 14.440 10.815 12.325 0.007 -0.008 -0.009 0.000
1763 4 -1.386 12.254 14.465 -0.002 -0.008 0.003 0.000
1764 4 -1.488 14.380 12.675 -0.001 -0.006 0.002 -0.000
1765 4 0.470 12.791 12.618 -0.002 0.002 0.002 0.000
1766 4 0.751 14.694 14.763 -0.007 0.001 -0.001 -0.000
1767 4 2.641 12.564 14.462 -0.006 -0.001 -0.003 -0.000
1768 4 2.404 14.076 12.419 0.001 -0.002 0.008 0.000
1769 4 4.226 12.409 12.572 -0.001 0.010 -0.000 -0.000
1770 4 4.797 13.923 14.254 -0.003 0.005 0.001 0.000
1771 4 6.635 12.339 14.477 0.007 -0.007 -0.004 -0.000
1772 4 6.770 13.632 12.201 0.007 -0.002 -0.003 0.000
1773 4 8.595 12.152 12.134 -0.008 0.003 -0.001 -0.000
1774 4 8.556 14.023 14.503 -0.009 0.012 0.011 0.000
1775 4 10.498 11.937 14.018 0.001 -0.002 -0.008 -0.000
1776 4 10.268 13.774 12.265 -0.001 0.003 -0.009 -0.000
1777 4 12.287 11.729 12.373 0.005 0.003 0.008 -0.000
1778 4 12.181 13.903 13.781 -0.002 -0.005 -0.009 0.000
1779 4 14.036 12.299 14.436 0.003 0.007 -0.000 0.000
1780 4 14.428 13.914 11.990 0.003 0.001 -0.006 -0.000
2004 4 -1.272 -1.195 16.325 -0.000 0.008 -0.003 0.000
2006 4 0.924 -1.597 17.966 0.002 -0.012 -0.004 -0.000
2008 4 2.211 -0.875 16.041 0.007 -0.003 0.002 0.000
2010 4 4.647 -0.718 17.459 0.001 0.003 0.005 -0.000
2012 4 6.563 -1.083 15.914 0.008 -0.004 0.013 -0.000
2014 4 8.307 -1.014 17.732 -0.002 0.003 -0.009 -0.000
2016 4 10.581 -0.766 15.497 -0.000 0.006 -0.003 0.000
2018 4 12.454 -0.637 18.277 -0.004 -0.002 0.001 0.000
2020 4 14.358 -0.637 16.541 -0.001 0.001 -0.008 0.000
2043 4 -1.564 0.680 17.999 0.005 0.001 -0.002 0.000
2044 4 -0.796 2.894 16.514 -0.000 0.003 -0.002 0.000
2045 4 0.829 1.011 15.873 0.002 0.003 -0.002 0.000
2046 4 1.329 3.189 18.163 -0.001 -0.002 -0.001 -0.000
2047 4 2.726 0.767 17.607 0.001 0.007 -0.000 0.000
2048 4 2.359 3.107 15.749 0.004 0.003 -0.008 0.000
2049 4 4.763 0.884 15.418 -0.012 0.012 0.002 0.000
2050 4 4.348 2.440 17.529 0.005 -0.004 0.002 0.000
2051 4 6.517 0.878 17.536 -0.001 0.008 0.000 0.000
2052 4 6.385 2.826 15.813 0.007 -0.008 -0.007 0.000
2053 4 8.754 0.923 16.016 0.007 0.001 0.011 0.000
2054 4 8.458 2.841 17.667 -0.003 -0.016 0.005 -0.000
2055 4 10.827 0.952 18.039 0.003 -0.013 0.002 0.000
2056 4 10.998 2.693 16.207 0.009 -0.004 -0.004 -0.000
2057 4 12.673 1.167 15.897 -0.000 -0.003 0.002 0.000
2058 4 12.905 2.570 17.995 0.010 -0.004 -0.010 -0.000
2059 4 14.380 0.687 18.456 -0.005 -0.004 -0.005 0.000
2060 4 14.245 3.027 15.927 0.010 -0.003 0.017 -0.000
2083 4 -1.073 4.834 18.135 0.002 0.004 -0.017 -0.000
2084 4 -1.169 6.505 16.018 -0.004 -0.007 0.000 0.000
2085 4 0.728 4.993 16.235 0.004 -0.003 0.004 0.000
2086 4 0.812 6.527 18.287 0.003 -0.000 -0.001 -0.000
2087 4 2.883 4.907 17.621 -0.005 0.004 -0.008 0.000
2088 4 2.429 6.624 15.982 -0.004 -0.008 -0.000 -0.000
2089 4 4.499 4.867 15.956 -0.023 0.008 0.001 -0.000
2090 4 4.495 6.816 17.353 -0.008 0.004 -0.003 -0.000
2091 4 6.793 5.005 17.705 0.006 0.000 0.001 -0.000
2092 4 6.586 6.605 15.367 0.007 0.008 -0.014 -0.000
2093 4 8.631 5.090 15.676 -0.004 0.001 -0.001 -0.000
2094 4 8.749 6.677 18.062 0.002 -0.007 0.003 -0.000
2095 4 10.581 4.612 17.633 -0.002 -0.007 0.006 -0.000
2096 4 10.427 6.695 16.304 -0.010 0.002 0.003 -0.000
2097 4 12.549 4.776 16.017 0.010 0.013 0.003 -0.000
2098 4 12.800 6.622 18.013 -0.005 0.004 0.002 -0.000
2099 4 14.445 4.691 17.556 -0.006 -0.004 -0.000 -0.000
2100 4 14.351 6.530 16.041 -0.005 0.001 -0.002 -0.000
2123 4 -1.160 8.474 18.044 -0.005 -0.004 -0.005 -0.000
2124 4 -1.145 10.564 16.198 0.001 0.002 -0.003 -0.000
2125 4 0.733 8.553 16.203 0.013 -0.011 -0.004 0.000
2126 4 0.625 10.396 18.228 -0.002 -0.007 -0.005 -0.000
2127 4 2.518 8.683 17.915 -0.000 -0.002 -0.002 -0.000
2128 4 2.868 10.362 15.901 -0.004 -0.007 0.002 -0.000
2129 4 4.861 8.698 15.903 -0.004 0.008 0.001 -0.000
2130 4 4.619 10.046 18.074 0.002 -0.002 0.007 0.000
2131 4 6.673 8.440 17.776 0.003 0.003 -0.007 -0.000
2132 4 6.746 10.588 16.417 -0.001 -0.001 0.003 0.000
2133 4 8.606 8.380 15.751 -0.001 0.003 0.002 -0.000
2134 4 8.635 9.892 18.020 0.003 -0.005 0.001 -0.000
2135 4 10.648 8.385 18.120 0.004 -0.002 0.003 -0.000
2136 4 10.119 10.479 16.015 -0.005 0.002 -0.003 -0.000
2137 4 12.103 8.717 16.179 -0.002 0.008 -0.004 -0.000
2138 4 12.425 10.401 18.032 0.008 -0.006 0.004 -0.000
2139 4 14.214 8.329 17.639 0.001 0.007 -0.006 0.000
2140 4 13.949 10.235 16.246 0.002 -0.005 -0.001 0.000
2163 4 -1.465 12.310 18.050 0.006 0.006 -0.003 -0.000
2164 4 -1.258 14.032 16.625 0.003 -0.000 -0.010 -0.000
2165 4 0.791 12.032 16.304 -0.007 -0.005 -0.005 -0.000
2166 4 0.637 13.992 18.146 -0.002 -0.004 0.003 -0.000
2167 4 3.188 12.132 18.036 -0.002 -0.000 0.016 -0.000
2168 4 3.203 14.239 16.322 -0.011 0.002 -0.001 -0.000
2169 4 4.774 12.208 15.979 0.002 0.002 -0.007 -0.000
2170 4 4.704 14.225 18.260 0.006 -0.001 -0.011 0.000
2171 4 6.478 12.525 17.942 -0.008 -0.006 -0.005 -0.000
2172 4 6.411 14.367 16.343 -0.003 0.006 -0.004 0.000
2173 4 8.396 12.342 16.132 -0.003 0.007 0.009 -0.000
2174 4 8.524 14.321 17.801 0.000 0.007 0.010 0.000
2175 4 10.158 12.761 17.611 -0.011 0.007 0.006 -0.000
2176 4 10.422 13.994 15.601 -0.001 -0.006 -0.003 -0.000
2177 4 11.937 12.105 16.151 -0.003 -0.001 0.009 -0.000
2178 4 12.192 14.204 18.310 -0.001 0.003 0.003 -0.000
2179 4 13.945 12.263 18.027 -0.007 -0.001 -0.002 -0.000
2180 4 13.714 14.288 16.019 -0.002 -0.003 -0.002 0.000
2404 4 -0.991 -1.119 20.038 0.002 0.001 -0.010 0.000
2408 4 2.476 -0.953 19.931 -0.001 0.002 0.007 -0.000
2412 4 6.330 -0.853 19.587 -0.002 -0.003 -0.002 0.000
2416 4 10.472 -1.014 20.230 -0.002 0.003 -0.003 0.000
2420 4 14.235 -1.206 19.981 0.007 -0.004 -0.003 0.000
2443 4 -0.882 0.976 21.616 -0.006 -0.003 0.008 0.000
2444 4 -0.967 2.709 19.491 -0.001 0.008 0.004 0.000
2445 4 0.913 0.553 19.701 -0.001 -0.005 -0.003 0.000
2448 4 2.619 2.631 19.846 0.003 0.007 -0.002 0.000
2449 4 4.468 0.656 19.546 0.003 -0.006 -0.003 0.000
2452 4 6.516 3.110 19.382 -0.005 -0.001 0.003 0.000
2453 4 8.347 0.699 19.496 0.015 0.007 0.000 0.000
2456 4 10.490 3.000 19.778 0.006 -0.004 0.004 0.000
2457 4 12.206 0.861 20.423 0.009 -0.011 0.004 0.000
2460 4 14.276 2.643 20.010 0.011 -0.005 0.007 -0.000
2484 4 -1.126 6.483 19.899 -0.003 -0.003 0.008 -0.000
2485 4 0.960 4.719 19.979 0.009 -0.002 0.005 -0.000
2488 4 2.962 6.979 19.693 0.001 -0.002 -0.001 -0.000
2489 4 4.283 4.921 19.375 -0.001 -0.002 0.003 -0.000
2492 4 6.595 6.620 19.640 -0.012 -0.015 -0.003 0.000
2493 4 8.676 4.430 19.647 -0.000 0.003 -0.003 -0.000
2496 4 10.829 6.200 19.597 -0.003 -0.000 0.010 -0.000
2497 4 12.715 4.407 19.602 0.012 -0.010 -0.004 -0.000
2500 4 13.839 6.547 20.213 0.006 -0.006 -0.002 -0.000
2524 4 -1.427 10.578 20.106 -0.001 0.009 0.003 -0.000
2525 4 0.589 8.497 19.918 -0.000 -0.005 -0.001 -0.000
2528 4 2.904 10.348 19.902 0.007 0.005 0.003 0.000
2529 4 4.767 8.616 19.853 -0.004 -0.008 -0.003 0.000
2532 4 6.613 10.323 19.520 0.000 0.006 0.002 0.000
2533 4 8.779 8.153 19.725 -0.004 0.004 0.004 0.000
2536 4 10.482 10.398 19.699 -0.008 0.001 0.001 0.000
2537 4 12.466 8.806 19.768 0.006 0.005 0.001 0.000
2540 4 14.404 10.340 19.758 -0.013 0.007 -0.012 -0.000
2564 4 -1.795 14.068 19.787 0.010 0.004 0.005 0.000
2565 4 0.866 12.115 20.064 -0.006 -0.005 0.005 -0.000
2568 4 2.916 14.371 20.342 0.001 0.002 0.004 -0.000
2569 4 4.404 12.649 20.327 0.001 0.003 -0.000 -0.000
2572 4 6.617 14.153 19.965 -0.003 0.006 0.007 0.000
2573 4 8.502 11.991 19.585 -0.000 -0.003 -0.003 -0.000
2576 4 10.113 14.107 19.990 -0.001 0.014 -0.007 -0.000
2577 4 12.236 12.137 19.770 0.007 -0.002 -0.003 -0.000
2580 4 14.326 13.791 20.041 -0.006 0.002 0.004 -0.000
2534 4 8.668 10.079 21.243 0.002 -0.010 0.002 -0.000
2406 4 1.082 -1.138 21.944 -0.003 0.007 -0.002 -0.000
2486 4 1.200 6.530 21.938 0.014 0.005 -0.003 -0.000
2566 4 1.009 14.615 22.338 -0.007 -0.010 0.010 0.000
2523 4 -1.227 8.753 21.675 -0.001 0.004 0.001 -0.000
2527 4 2.709 8.725 21.916 0.008 -0.018 0.000 -0.000
2455 4 9.863 0.885 21.538 -0.002 0.007 -0.002 0.000
2410 4 4.295 -0.440 21.490 -0.002 0.001 -0.001 0.000
2483 4 -1.131 4.866 21.773 -0.003 0.004 0.003 -0.000
2570 4 4.710 14.035 22.250 -0.001 -0.004 0.007 0.000
2414 4 8.112 -1.289 21.631 0.009 -0.000 0.000 0.000
2450 4 4.653 3.070 21.026 0.010 0.013 0.004 0.000
2491 4 6.585 4.683 21.592 -0.004 -0.013 -0.005 -0.000
2498 4 11.935 5.971 21.865 0.009 0.002 -0.000 -0.000
2458 4 11.592 3.085 21.688 0.008 -0.005 0.001 -0.000
2459 4 14.527 0.549 21.802 0.003 -0.005 0.002 0.000
2451 4 6.112 1.154 21.088 0.012 0.002 -0.003 0.000
2567 4 3.012 11.874 22.098 0.009 0.001 -0.006 0.000
2571 4 6.864 12.141 21.708 -0.004 0.004 0.002 -0.000
2487 4 2.676 4.320 21.894 0.007 -0.001 -0.004 -0.000
2530 4 4.704 10.460 22.017 0.000 -0.003 -0.001 0.000
2575 4 10.334 12.027 21.881 -0.002 -0.001 0.006 -0.000
2535 4 10.693 8.031 21.652 0.011 0.002 0.007 0.000
2494 4 8.159 6.451 21.324 0.000 -0.009 0.007 -0.000
2531 4 6.365 8.862 21.668 -0.007 0.008 -0.009 0.000
2447 4 2.574 1.039 21.324 0.008 -0.002 0.010 -0.000
2579 4 14.117 12.101 21.670 -0.000 -0.005 -0.005 0.000
2446 4 0.620 2.964 21.868 0.004 0.002 -0.013 -0.000
2490 4 4.418 6.905 21.715 0.010 -0.002 -0.001 0.000
2499 4 14.506 4.715 21.832 0.004 -0.011 -0.002 -0.000
2454 4 7.851 2.708 21.381 0.004 0.002 -0.012 0.000
2526 4 0.896 10.403 21.831 0.000 -0.007 0.008 -0.000
2495 4 9.752 4.809 21.778 -0.003 0.004 0.006 -0.000
2539 4 13.907 8.332 21.947 0.001 -0.000 0.009 0.000
2538 4 12.260 10.292 21.779 -0.003 0.002 0.008 -0.000
2574 4 8.553 14.141 21.942 0.001 0.005 -0.002 -0.000
2418 4 12.296 -1.189 22.112 0.003 0.005 -0.000 -0.000
2563 4 -1.504 12.403 22.090 -0.000 0.003 0.007 -0.000
2402 4 -2.891 -1.071 21.776 -0.003 -0.010 0.000 0.000
2578 4 12.339 13.973 21.883 -0.001 -0.011 0.001 -0.000
1415 4 10.650 15.891 10.368 -0.001 0.009 -0.001 0.000
819 4 14.216 -2.838 6.670 0.008 -0.003 0.016 -0.000
2081 4 -3.009 5.042 16.278 -0.007 0.001 0.002 -0.000
1642 4 -3.082 2.744 14.683 -0.014 -0.007 0.007 -0.000
842 4 -2.905 3.044 6.548 -0.009 0.004 0.005 0.000
2613 4 8.736 15.994 20.047 -0.000 0.003 0.002 0.000
1803 4 -1.529 16.074 14.545 0.011 0.011 0.000 -0.000
881 4 -3.022 4.740 4.742 0.001 -0.002 0.005 -0.000
2607 4 2.772 15.941 22.358 -0.009 -0.000 -0.006 -0.000
1809 4 4.476 15.857 12.348 0.003 -0.001 -0.004 0.000
1641 4 -3.066 0.728 12.547 -0.004 0.008 0.006 0.000
2019 4 14.439 -2.972 17.474 -0.007 -0.003 -0.003 -0.000
164 4 -1.337 14.100 -2.430 0.001 -0.003 0.005 0.000
168 4 2.916 14.207 -2.740 -0.006 -0.004 -0.010 0.000
1413 4 8.552 16.137 8.274 0.003 0.007 0.000 -0.000
2042 4 -3.054 2.865 18.221 -0.005 -0.004 -0.002 -0.000
1409 4 4.708 15.777 8.340 -0.000 0.005 -0.002 0.000
2411 4 6.149 -2.846 21.495 0.003 0.002 -0.004 0.000
2413 4 8.438 -2.748 19.499 0.007 0.002 0.000 -0.000
15 4 10.502 -2.805 -1.114 -0.009 -0.011 -0.006 -0.000
1721 4 -2.992 8.252 12.411 0.002 0.000 0.008 0.000
124 4 -1.679 10.903 -2.823 -0.001 0.003 -0.007 0.000
19 4 14.223 -2.727 -1.124 -0.000 0.004 -0.003 0.000
809 4 5.201 -2.819 4.466 -0.003 0.010 0.002 -0.000
882 4 -2.962 6.889 6.671 0.000 0.000 -0.001 -0.000
84 4 -0.825 6.898 -2.799 -0.004 -0.001 0.001 0.000
2441 4 -2.844 0.973 19.911 -0.004 0.006 -0.005 0.000
1321 4 -2.632 8.682 8.754 0.001 -0.001 -0.001 -0.000
1205 4 0.679 -3.032 8.130 0.002 -0.008 0.013 -0.000
1601 4 -2.901 -2.838 12.256 0.006 -0.005 -0.007 0.000
1215 4 10.248 -2.801 10.667 -0.001 -0.000 0.007 -0.000
817 4 12.442 -2.695 4.602 0.004 -0.010 0.003 -0.000
2013 4 8.319 -2.690 15.631 -0.000 0.007 0.004 -0.000
2482 4 -2.803 7.009 21.733 -0.011 0.005 -0.003 0.000
841 4 -2.969 0.672 4.799 -0.005 0.004 0.003 0.000
2219 4 13.681 16.028 18.257 0.000 -0.003 -0.005 -0.000
2011 4 6.182 -2.878 17.744 -0.000 -0.004 0.011 -0.000
415 4 10.415 -2.509 3.004 -0.002 0.001 -0.006 -0.000
1281 4 -2.901 4.738 8.379 -0.001 0.006 0.005 -0.000
2442 4 -2.844 2.914 21.555 0.007 -0.002 0.004 0.000
82 4 -2.745 6.442 -1.366 0.003 -0.006 0.002 0.000
1805 4 0.743 15.892 12.327 -0.007 -0.006 -0.005 -0.000
2203 4 -1.317 15.857 18.271 -0.006 0.004 0.008 -0.000
1609 4 4.649 -2.879 11.817 0.001 -0.007 0.005 0.000
9 4 4.861 -2.769 -3.019 0.003 0.007 -0.014 0.000