ITEM: TIMESTEP
11000
ITEM: NUMBER OF ATOMS
32000
ITEM: BOX BOUNDS pp pp pp
-3.030132 73.510132
-3.006071 73.486071
-3.025992 73.505992
ITEM: ATOMS id type x y z vx vy vz q
6 4 0.818 -1.029 -1.617 0.005 -0.001 -0.002 -0.000
10 4 4.684 -0.820 -1.325 -0.012 0.006 0.004 -0.000
14 4 8.363 -1.051 -1.110 0.007 -0.005 0.002 0.000
18 4 12.354 -1.124 -0.882 0.003 -0.008 0.001 0.000
43 4 -1.003 0.657 -1.186 -0.001 0.006 0.002 0.000
46 4 0.830 2.754 -1.547 0.002 -0.001 -0.020 -0.000
47 4 2.880 1.016 -1.080 -0.005 -0.000 -0.005 0.000
50 4 4.311 2.837 -1.367 -0.001 -0.001 -0.003 -0.000
51 4 6.392 1.082 -0.866 0.001 0.005 -0.003 -0.000
54 4 8.296 2.962 -0.829 0.008 -0.002 -0.003 -0.000
55 4 10.762 0.854 -0.933 -0.000 0.001 0.011 -0.000
58 4 12.589 2.731 -1.465 0.006 0.001 0.018 -0.000
59 4 14.263 0.576 -1.437 -0.003 -0.014 0.002 0.000
83 4 -1.124 4.695 -1.089 0.001 0.008 0.002 0.000
86 4 0.828 6.187 -1.286 0.010 0.015 0.008 0.000
87 4 2.719 4.622 -1.052 -0.010 0.006 -0.004 -0.000
90 4 4.452 6.370 -1.336 -0.009 0.010 -0.005 -0.000
91 4 6.603 4.765 -1.166 0.003 -0.004 0.005 -0.000
94 4 8.852 6.285 -0.905 -0.011 0.013 0.000 -0.000
95 4 10.545 4.428 -1.115 -0.003 -0.004 0.006 -0.000
98 4 12.298 6.725 -1.001 0.007 -0.002 0.001 -0.000
99 4 14.569 5.128 -1.431 -0.012 -0.003 -0.002 0.000
123 4 -1.170 8.297 -1.069 0.002 0.001 0.002 -0.000
126 4 0.451 10.411 -1.368 -0.008 0.004 0.011 0.000
127 4 2.714 8.348 -1.449 0.005 0.002 -0.003 -0.000
130 4 4.896 9.758 -1.314 0.002 -0.004 0.002 -0.000
131 4 6.984 8.382 -0.935 -0.006 -0.003 0.001 0.000
134 4 8.395 10.554 -0.962 0.005 -0.004 -0.007 0.000
135 4 10.193 8.396 -1.334 -0.004 0.007 0.002 0.000
138 4 12.311 10.367 -1.096 0.005 0.003 0.004 -0.000
139 4 14.658 8.554 -1.183 0.004 -0.007 -0.001 0.000
163 4 -1.418 12.244 -1.116 -0.005 -0.000 -0.006 0.000
166 4 0.669 14.500 -1.316 -0.006 0.001 -0.003 -0.000
167 4 2.562 12.262 -1.548 -0.002 -0.003 0.011 -0.000
170 4 4.266 14.080 -1.280 0.006 -0.003 -0.005 -0.000
171 4 6.970 12.417 -0.775 0.000 -0.007 -0.000 0.000
174 4 8.476 14.226 -0.658 0.000 -0.008 0.004 -0.000
175 4 10.644 12.312 -0.657 -0.002 -0.018 -0.003 -0.000
178 4 12.755 14.103 -0.601 -0.003 0.002 0.006 0.000
179 4 14.274 12.001 -1.349 -0.006 -0.002 0.003 0.000
404 4 -0.947 -0.964 0.622 -0.005 0.010 0.001 -0.000
406 4 0.827 -0.960 2.930 -0.012 0.001 0.014 0.000
408 4 2.576 -0.907 0.826 -0.010 -0.004 0.003 -0.000
410 4 4.589 -1.024 2.667 0.000 -0.005 0.001 0.000
412 4 6.444 -1.089 0.699 0.006 0.001 -0.002 0.000
414 4 8.263 -0.956 2.431 -0.000 -0.000 0.009 -0.000
416 4 10.224 -0.997 0.536 -0.005 -0.003 -0.000 -0.000
418 4 12.454 -0.756 2.206 0.006 0.002 0.006 0.000
420 4 14.552 -0.897 0.549 0.002 0.013 -0.003 -0.000
443 4 -1.045 0.775 2.785 0.001 -0.006 0.010 0.000
444 4 -1.155 2.826 0.611 0.007 0.000 0.006 0.000
445 4 0.876 0.784 0.914 0.007 0.005 0.011 0.000
446 4 0.693 2.966 2.879 -0.005 -0.008 -0.011 -0.000
447 4 2.608 0.877 2.790 0.000 -0.003 -0.009 -0.000
448 4 2.595 2.608 0.649 0.003 -0.001 -0.004 0.000
449 4 4.650 0.949 0.806 0.002 -0.008 -0.010 0.000
450 4 4.447 2.805 2.338 0.005 -0.015 0.004 -0.000
451 4 6.140 1.101 2.437 0.011 -0.006 0.001 -0.000
452 4 6.619 3.107 0.665 0.002 -0.006 -0.000 -0.000
453 4 8.668 0.947 0.450 0.012 -0.008 -0.004 0.000
454 4 8.500 2.880 2.371 0.009 0.016 -0.002 -0.000
455 4 10.558 0.877 2.161 0.004 -0.003 0.001 0.000
456 4 10.643 2.783 0.754 -0.001 0.010 0.006 -0.000
457 4 12.773 1.245 0.579 0.005 0.002 0.001 0.000
458 4 12.732 2.892 2.410 -0.006 -0.008 -0.010 -0.000
459 4 14.438 1.154 2.256 0.002 0.004 -0.006 -0.000
460 4 14.663 2.929 0.189 0.017 0.001 -0.000 -0.000
483 4 -1.644 5.009 2.680 -0.007 0.002 0.003 -0.000
484 4 -1.153 6.355 0.754 0.008 -0.008 -0.005 0.000
485 4 0.635 4.427 0.513 -0.007 -0.004 -0.012 0.000
486 4 0.631 6.464 2.788 0.008 -0.000 0.004 0.000
487 4 2.748 4.556 2.240 -0.007 0.000 0.004 -0.000
488 4 2.385 6.287 0.942 -0.010 -0.003 0.001 -0.000
489 4 4.624 4.348 0.642 0.007 -0.005 0.008 0.000
490 4 4.593 6.349 2.311 0.005 -0.000 -0.006 -0.000
491 4 6.478 4.996 2.390 0.001 0.006 0.007 -0.000
492 4 6.160 6.503 0.459 0.001 0.008 -0.002 0.000
493 4 8.442 4.696 0.746 -0.009 -0.012 0.007 0.000
494 4 8.398 6.605 2.668 -0.012 0.007 0.000 -0.000
495 4 10.594 4.707 2.324 -0.008 -0.008 -0.003 -0.000
496 4 10.425 6.598 0.885 0.001 -0.002 -0.001 -0.000
497 4 12.673 4.621 0.317 0.000 0.001 0.006 -0.000
498 4 12.403 6.154 2.710 -0.007 0.005 -0.001 -0.000
499 4 14.389 4.429 2.394 -0.002 0.001 0.002 0.000
500 4 14.394 6.722 0.778 -0.001 -0.009 0.004 -0.000
523 4 -1.192 8.109 2.498 -0.008 -0.007 0.002 -0.000
524 4 -1.129 10.233 1.011 0.009 -0.002 0.002 0.000
525 4 0.864 8.516 0.474 -0.003 -0.003 -0.001 0.000
526 4 0.570 10.131 2.782 0.012 -0.004 0.004 0.000
527 4 2.621 8.681 2.658 -0.003 0.001 -0.001 0.000
528 4 2.590 10.492 0.356 -0.008 -0.006 0.003 0.000
529 4 3.967 8.282 0.690 0.004 0.001 -0.003 0.000
530 4 4.681 10.693 2.561 -0.003 -0.001 0.003 0.000
531 4 6.460 8.333 2.291 -0.004 -0.007 0.003 0.000
532 4 6.296 10.424 0.685 -0.001 0.008 -0.002 0.000
533 4 8.752 8.552 0.663 0.000 0.005 -0.002 -0.000
534 4 8.337 10.280 2.514 -0.015 -0.002 0.011 0.000
535 4 10.448 8.650 3.114 -0.006 -0.002 -0.006 -0.000
536 4 10.406 10.205 0.588 0.002 0.008 -0.013 -0.000
537 4 12.357 8.521 0.799 0.001 -0.009 0.002 0.000
538 4 12.340 10.259 2.421 -0.002 -0.001 -0.001 -0.000
539 4 14.348 8.385 2.843 0.006 0.004 -0.000 0.000
540 4 14.307 10.152 0.667 0.000 -0.005 0.013 0.000
563 4 -1.074 12.294 2.627 -0.002 -0.006 -0.005 0.000
564 4 -1.214 14.128 0.805 -0.014 -0.001 0.003 -0.000
565 4 0.581 12.154 0.955 0.006 -0.005 0.011 -0.000
566 4 0.453 14.193 2.558 0.014 -0.003 0.003 -0.000
567 4 2.580 11.591 2.783 0.001 -0.001 -0.007 -0.000
568 4 2.247 13.874 0.909 0.009 -0.006 0.001 -0.000
569 4 4.381 12.316 0.710 0.008 -0.004 -0.008 -0.000
570 4 4.113 13.844 2.654 -0.001 0.004 0.004 -0.000
571 4 6.606 12.335 2.267 -0.013 0.000 -0.003 0.000
572 4 6.316 14.437 0.982 -0.001 -0.005 -0.001 -0.000
573 4 8.890 12.501 0.922 -0.003 0.007 -0.012 0.000
574 4 8.564 14.277 2.367 0.001 -0.001 0.009 0.000
575 4 10.783 12.353 2.327 0.008 0.003 0.001 0.000
576 4 10.774 14.581 0.866 -0.015 0.001 0.005 -0.000
577 4 12.633 12.089 0.730 -0.004 0.014 -0.005 -0.000
578 4 12.852 14.330 2.463 0.001 0.006 -0.006 0.000
579 4 14.505 12.097 2.912 -0.007 0.003 0.009 -0.000
580 4 14.626 14.126 1.031 -0.003 -0.000 -0.007 0.000
804 4 -1.213 -0.922 4.830 -0.004 0.001 -0.005 -0.000
806 4 0.686 -0.987 6.750 0.009 0.002 0.010 0.000
808 4 2.729 -1.225 4.723 0.007 -0.001 -0.003 -0.000
810 4 4.276 -0.890 6.409 -0.001 0.002 0.010 0.000
812 4 6.739 -1.006 4.620 0.002 0.004 0.007 0.000
814 4 8.598 -1.186 6.248 0.015 0.003 0.011 0.000
816 4 9.981 -0.639 4.457 -0.003 0.008 0.009 0.000
818 4 12.636 -1.173 6.539 0.005 -0.006 0.004 -0.000
820 4 14.317 -0.999 4.855 -0.003 0.010 0.001 0.000
843 4 -0.969 0.752 7.222 -0.006 -0.002 -0.006 0.000
844 4 -1.210 2.795 4.517 0.006 -0.008 -0.008 0.000
845 4 0.597 0.917 4.826 0.003 -0.005 -0.004 0.000
846 4 0.428 2.961 6.639 0.000 -0.004 -0.006 -0.000
847 4 2.976 0.838 6.141 -0.003 0.009 0.004 0.000
848 4 2.328 2.876 4.500 0.010 0.001 0.001 0.000
849 4 4.565 0.652 4.406 0.001 0.004 0.008 0.000
850 4 5.063 2.700 6.107 0.002 -0.002 -0.005 0.000
851 4 6.630 0.968 6.599 -0.004 0.003 -0.005 -0.000
852 4 6.573 2.904 4.126 -0.012 -0.011 0.005 -0.000
853 4 8.183 0.907 4.290 -0.010 0.002 0.001 0.000
854 4 8.103 2.767 6.362 0.005 0.008 -0.011 0.000
855 4 10.673 0.585 6.206 -0.006 -0.003 -0.011 0.000
856 4 10.375 2.463 4.263 -0.011 -0.005 -0.003 -0.000
857 4 12.293 1.105 4.121 0.000 0.007 0.008 0.000
858 4 12.013 2.938 6.578 0.005 0.008 0.000 0.000
859 4 14.180 1.101 6.375 -0.019 0.003 0.000 0.000
860 4 14.040 2.934 4.307 0.003 0.004 0.002 0.000
883 4 -1.192 4.655 7.093 -0.002 -0.005 -0.005 -0.000
884 4 -1.404 6.555 4.521 -0.006 -0.002 -0.005 0.000
885 4 0.429 4.857 4.814 -0.012 0.004 -0.015 -0.000
886 4 0.707 6.428 6.809 0.009 0.007 0.003 0.000
887 4 2.496 4.435 6.803 0.001 -0.009 0.009 -0.000
888 4 2.803 6.545 4.188 0.001 -0.009 -0.005 0.000
889 4 4.036 4.395 4.785 0.003 -0.007 0.013 -0.000
890 4 4.824 6.451 6.796 0.001 -0.002 -0.001 0.000
891 4 6.212 4.558 6.408 -0.003 -0.001 -0.002 -0.000
892 4 6.290 6.381 4.518 0.002 0.004 -0.001 0.000
893 4 8.545 4.880 4.257 -0.004 0.007 -0.007 -0.000
894 4 7.956 6.503 6.561 -0.005 0.001 -0.003 0.000
895 4 10.168 4.445 6.478 0.012 0.004 0.005 -0.000
896 4 10.167 6.897 4.479 -0.005 0.000 -0.003 -0.000
897 4 11.840 4.422 4.615 -0.009 -0.009 0.001 -0.000
898 4 12.586 7.096 6.747 0.004 -0.000 0.007 0.000
899 4 14.388 4.836 6.264 0.003 0.008 -0.006 -0.000
900 4 14.474 6.458 4.543 0.004 0.008 -0.011 -0.000
923 4 -0.957 8.337 6.236 -0.004 -0.006 0.006 -0.000
924 4 -1.230 10.704 4.357 -0.014 -0.002 0.006 0.000
925 4 1.015 8.083 4.389 -0.006 0.003 -0.005 -0.000
926 4 0.777 10.221 6.331 0.004 -0.006 -0.001 0.000
927 4 2.675 8.078 6.461 0.002 0.001 -0.003 0.000
928 4 2.800 10.345 5.003 0.008 -0.003 0.004 -0.000
929 4 4.810 8.566 4.376 0.001 -0.005 -0.013 -0.000
930 4 4.807 10.390 6.365 0.000 0.010 0.001 0.000
931 4 6.376 8.298 6.588 0.002 0.002 0.002 -0.000
932 4 6.497 10.622 4.290 0.002 0.011 -0.002 -0.000
933 4 8.324 8.371 4.570 0.023 -0.002 -0.004 -0.000
934 4 8.419 10.228 6.501 0.003 -0.002 0.006 0.000
935 4 10.486 8.460 6.501 0.013 -0.006 -0.001 -0.000
936 4 10.241 10.916 4.235 0.001 -0.004 -0.001 -0.000
937 4 12.797 8.253 4.521 -0.009 -0.006 -0.005 -0.000
938 4 11.741 10.739 6.718 0.002 -0.009 0.007 0.000
939 4 14.511 8.700 6.859 0.002 -0.000 -0.006 -0.000
940 4 14.258 10.073 4.524 -0.006 0.001 0.001 0.000
963 4 -1.234 11.752 6.514 0.001 0.007 -0.007 0.000
964 4 -1.109 13.853 4.884 -0.002 0.001 0.004 0.000
965 4 0.945 12.168 4.064 -0.011 0.003 -0.004 0.000
966 4 0.499 13.928 6.582 0.004 -0.003 -0.003 0.000
967 4 2.510 12.118 6.995 -0.007 0.013 -0.005 0.000
968 4 2.635 13.550 4.904 0.009 0.016 0.008 -0.000
969 4 4.566 12.432 4.771 -0.001 -0.006 0.000 0.000
970 4 4.962 14.251 6.693 -0.001 0.004 -0.000 -0.000
971 4 6.600 12.286 6.867 0.003 0.005 -0.004 -0.000
972 4 6.401 13.773 4.529 -0.001 -0.008 -0.010 -0.000
973 4 8.336 12.337 4.760 0.001 -0.002 -0.001 0.000
974 4 8.084 14.028 6.720 -0.002 -0.014 0.002 0.000
975 4 9.914 12.528 6.232 -0.010 -0.003 0.004 -0.000
976 4 10.624 13.897 4.116 0.004 -0.004 -0.002 0.000
977 4 12.499 12.497 4.291 0.002 0.000 -0.005 -0.000
978 4 11.917 13.690 6.557 0.000 -0.005 -0.004 0.000
979 4 14.306 12.111 6.519 0.001 0.007 -0.002 -0.000
980 4 14.349 14.009 4.926 0.007 0.005 0.003 0.000
1204 4 -1.462 -1.203 8.505 -0.002 -0.005 -0.003 -0.000
1206 4 0.955 -1.350 10.023 0.011 -0.005 0.005 -0.000
1208 4 2.532 -1.007 8.138 0.009 0.010 0.010 0.000
1210 4 4.226 -1.497 10.116 -0.007 0.001 0.001 -0.000
1212 4 6.463 -1.369 8.183 -0.012 -0.011 -0.001 0.000
1214 4 8.312 -1.342 10.024 -0.006 0.004 -0.004 -0.000
1216 4 10.128 -0.997 8.157 -0.007 0.002 0.007 0.000
1218 4 12.203 -1.453 10.153 -0.004 0.005 -0.006 -0.000
1220 4 14.450 -1.414 8.118 -0.001 0.003 -0.001 -0.000
1243 4 -1.155 0.660 10.241 0.006 0.003 0.000 -0.000
1244 4 -1.368 2.871 8.788 -0.002 0.006 -0.004 0.000
1245 4 1.228 1.261 8.055 0.004 -0.005 0.006 -0.000
1246 4 0.844 2.748 10.199 0.013 -0.005 -0.001 -0.000
1247 4 2.778 1.008 10.114 -0.007 0.000 0.001 -0.000
1248 4 2.371 3.172 8.683 0.001 -0.010 0.004 0.000
1249 4 4.298 0.626 8.106 0.004 -0.011 0.012 0.000
1250 4 4.675 2.459 10.462 -0.002 0.011 -0.006 -0.000
1251 4 6.332 0.755 10.137 0.004 -0.009 -0.003 0.000
1252 4 6.409 2.536 8.414 0.000 0.004 -0.001 -0.000
1253 4 8.216 0.853 8.505 0.002 -0.013 -0.007 -0.000
1254 4 8.002 2.669 10.391 -0.002 -0.016 -0.003 0.000
1255 4 10.645 1.000 9.782 -0.002 -0.001 0.003 -0.000
1256 4 10.229 2.872 8.388 -0.006 -0.003 -0.004 0.000
1257 4 12.489 0.513 8.151 0.017 0.003 0.003 0.000
1258 4 12.452 2.580 10.221 -0.003 0.003 0.006 0.000
1259 4 13.977 0.642 9.914 -0.003 0.006 0.014 -0.000
1260 4 14.065 2.622 8.210 -0.008 -0.006 -0.004 0.000
1283 4 -1.317 4.960 10.285 -0.003 -0.010 -0.005 -0.000
1284 4 -1.415 6.674 8.642 0.005 0.007 0.015 0.000
1285 4 0.424 4.890 8.843 0.001 -0.004 0.012 0.000
1286 4 0.686 6.658 10.691 -0.006 0.003 0.002 -0.000
1287 4 2.869 4.461 10.340 -0.013 0.005 0.000 -0.000
1288 4 2.885 6.404 8.741 0.006 0.001 0.004 -0.000
1289 4 4.800 4.212 8.543 0.004 0.011 -0.005 0.000
1290 4 4.768 6.389 10.640 -0.006 0.006 0.000 0.000
1291 4 6.491 4.699 10.794 -0.008 -0.001 0.004 -0.000
1292 4 6.311 6.402 8.537 0.001 -0.007 0.002 0.000
1293 4 7.711 4.413 8.420 0.009 -0.000 -0.003 -0.000
1294 4 8.371 6.247 10.714 0.009 -0.003 0.004 0.000
1295 4 10.572 4.026 10.584 -0.006 -0.002 0.002 -0.000
1296 4 10.009 5.904 8.869 0.004 -0.004 -0.003 0.000
1297 4 12.454 4.787 8.275 0.011 0.001 -0.007 -0.000
1298 4 12.107 6.716 10.266 -0.006 -0.003 -0.011 -0.000
1299 4 14.358 4.675 9.995 0.005 -0.004 -0.003 -0.000
1300 4 14.169 6.799 8.440 -0.002 -0.003 0.007 -0.000
1323 4 -1.321 8.445 10.697 0.003 -0.005 0.008 -0.000
1324 4 -0.916 10.603 8.551 0.013 -0.002 0.006 -0.000
1325 4 0.516 8.164 8.472 0.008 -0.003 0.009 -0.000
1326 4 0.959 10.066 10.441 -0.001 -0.006 -0.007 0.000
1327 4 2.901 8.474 10.573 0.005 -0.002 0.000 0.000
1328 4 3.052 10.323 8.560 -0.001 -0.008 -0.015 -0.000
1329 4 4.705 8.179 8.584 -0.008 -0.006 -0.001 0.000
1330 4 5.022 10.262 10.070 0.002 -0.002 0.009 -0.000
1331 4 6.718 8.551 10.138 -0.008 -0.002 0.005 0.000
1332 4 6.463 10.410 8.251 0.004 0.002 -0.002 0.000
1333 4 8.446 8.247 8.401 0.004 0.005 -0.004 0.000
1334 4 8.725 10.285 10.138 0.010 0.001 -0.005 -0.000
1335 4 10.075 7.876 10.658 0.001 0.004 0.004 -0.000
1336 4 10.367 10.041 8.503 -0.004 0.004 0.002 0.000
1337 4 12.416 8.453 8.695 -0.004 0.007 -0.004 -0.000
1338 4 12.383 10.425 10.158 -0.017 0.001 0.002 -0.000
1339 4 14.415 8.729 10.256 -0.005 0.007 -0.003 -0.000
1340 4 14.577 10.537 8.771 0.006 0.001 -0.001 0.000
1363 4 -1.210 12.452 10.370 -0.001 -0.009 -0.003 -0.000
1364 4 -1.127 13.888 8.243 0.004 0.005 0.008 0.000
1365 4 0.958 12.216 8.646 -0.010 -0.000 -0.007 -0.000
1366 4 0.732 13.916 10.424 -0.008 0.012 -0.002 0.000
1367 4 2.814 12.463 10.173 0.001 0.000 -0.007 -0.000
1368 4 2.532 14.429 8.237 0.003 0.007 -0.000 0.000
1369 4 4.539 12.326 8.297 0.008 -0.003 0.016 -0.000
1370 4 4.418 13.873 10.180 0.003 0.005 -0.002 -0.000
1371 4 6.558 12.143 10.375 -0.004 0.003 -0.006 -0.000
1372 4 6.738 14.105 8.914 -0.002 -0.002 -0.005 -0.000
1373 4 8.581 11.976 8.249 -0.001 0.000 0.004 0.000
1374 4 8.792 14.061 10.515 -0.003 0.000 0.001 -0.000
1375 4 10.567 12.222 10.046 -0.001 -0.009 -0.002 0.000
1376 4 10.622 14.365 8.786 0.002 -0.010 0.003 0.000
1377 4 12.502 12.323 8.429 -0.004 0.000 0.000 -0.000
1378 4 12.481 14.330 10.491 0.004 0.005 -0.006 0.000
1379 4 14.236 12.512 10.597 -0.006 0.006 0.003 0.000
1380 4 14.240 14.112 8.567 0.008 -0.005 -0.003 0.000
1604 4 -1.123 -1.213 12.405 0.002 -0.006 0.004 0.000
1606 4 0.861 -1.187 13.967 0.001 -0.002 0.004 -0.000
1608 4 2.525 -1.212 12.230 -0.001 -0.014 -0.006 -0.000
1610 4 4.580 -1.293 14.336 0.000 0.004 0.003 0.000
1612 4 6.269 -1.414 12.176 -0.009 -0.006 -0.007 0.000
1614 4 8.442 -1.061 14.263 -0.005 -0.001 -0.004 -0.000
1616 4 10.512 -1.195 12.215 0.000 0.004 0.001 0.000
1618 4 12.608 -0.904 13.946 -0.004 0.001 0.006 -0.000
1620 4 14.268 -1.212 12.014 -0.010 -0.002 -0.000 -0.000
1643 4 -1.297 0.780 13.916 -0.007 -0.004 -0.000 -0.000
1644 4 -1.043 2.556 12.073 -0.001 0.003 0.001 0.000
1645 4 0.821 0.517 11.880 -0.005 0.004 0.008 0.000
1646 4 0.817 2.591 13.874 -0.005 -0.005 0.003 -0.000
1647 4 2.713 0.476 14.317 -0.001 0.007 0.001 0.000
1648 4 2.798 2.774 12.156 0.001 0.005 0.003 0.000
1649 4 4.751 0.573 12.412 0.004 -0.008 0.003 0.000
1650 4 4.507 2.612 14.191 0.002 -0.007 0.014 0.000
1651 4 6.459 0.765 14.205 -0.009 -0.000 -0.004 0.000
1652 4 6.438 2.304 12.360 0.001 0.012 -0.005 -0.000
1653 4 8.205 0.517 12.057 -0.005 -0.007 0.006 -0.000
1654 4 8.517 2.364 14.022 -0.005 0.007 0.008 -0.000
1655 4 10.300 0.691 13.901 0.000 -0.001 -0.005 -0.000
1656 4 10.369 2.210 12.122 0.009 0.004 -0.015 -0.000
1657 4 12.330 0.519 11.894 -0.002 0.003 -0.005 -0.000
1658 4 12.774 2.123 13.819 0.002 0.003 -0.008 -0.000
1659 4 15.021 0.021 14.170 -0.007 0.002 -0.004 0.000
1660 4 14.298 2.614 12.065 0.000 -0.010 0.002 -0.000
1683 4 -0.990 4.699 13.767 0.003 -0.002 -0.002 -0.000
1684 4 -0.922 7.014 12.349 0.003 -0.000 0.005 0.000
1685 4 0.998 4.545 11.771 -0.001 -0.001 0.008 0.000
1686 4 0.884 6.804 13.781 0.006 -0.000 -0.003 -0.000
1687 4 2.627 4.649 13.927 0.006 -0.003 0.003 -0.000
1688 4 2.812 6.451 11.889 0.014 0.008 0.005 -0.000
1689 4 4.848 4.573 12.310 -0.000 -0.002 -0.002 -0.000
1690 4 4.379 6.476 13.727 0.009 0.010 -0.003 0.000
1691 4 6.553 4.503 14.106 -0.000 0.005 -0.005 0.000
1692 4 6.579 6.649 12.406 -0.008 0.008 -0.008 -0.000
1693 4 8.403 4.437 12.530 -0.009 -0.001 0.002 -0.000
1694 4 8.232 6.708 13.878 -0.006 -0.006 -0.001 0.000
1695 4 10.670 4.068 13.759 -0.003 -0.004 -0.010 0.000
1696 4 10.508 6.290 12.396 -0.000 -0.000 0.001 0.000
1697 4 12.811 4.504 11.935 0.011 0.010 0.002 -0.000
1698 4 12.418 6.862 13.883 0.018 0.001 0.000 0.000
1699 4 14.302 4.591 13.884 -0.003 0.009 -0.008 -0.000
1700 4 13.955 6.712 12.176 -0.002 -0.001 0.004 0.000
1723 4 -1.209 8.693 14.329 0.009 0.007 0.007 0.000
1724 4 -0.939 10.480 12.502 0.003 -0.011 -0.014 0.000
1725 4 0.737 8.750 12.310 -0.005 0.003 0.007 -0.000
1726 4 1.098 10.345 14.300 -0.003 0.012 -0.007 0.000
1727 4 3.303 8.648 14.207 0.013 0.003 0.009 -0.000
1728 4 3.416 10.288 12.350 0.002 -0.003 -0.001 0.000
1729 4 5.118 8.685 12.136 -0.006 0.003 -0.004 -0.000
1730 4 5.212 10.470 13.946 -0.001 -0.012 0.005 0.000
1731 4 6.439 8.249 14.329 -0.001 0.010 -0.005 -0.000
1732 4 6.724 10.413 12.157 0.005 0.009 -0.010 0.000
1733 4 8.373 8.369 12.266 0.006 0.006 0.004 0.000
1734 4 8.343 10.297 14.297 -0.002 0.014 -0.010 0.000
1735 4 10.204 8.862 13.995 -0.009 -0.004 -0.002 -0.000
1736 4 10.466 10.324 11.942 -0.001 0.002 0.010 0.000
1737 4 12.494 8.597 12.062 -0.010 -0.009 -0.011 -0.000
1738 4 12.538 10.178 14.070 0.007 -0.004 -0.016 0.000
1739 4 14.280 8.674 13.882 0.001 0.012 0.014 -0.000
1740 4 14.485 10.838 12.312 -0.003 -0.004 -0.010 0.000
1763 4 -1.601 12.378 14.424 0.006 0.007 -0.009 0.000
1764 4 -0.929 13.989 12.424 0.005 -0.003 0.007 -0.000
1765 4 0.810 12.185 12.013 -0.002 -0.001 -0.009 -0.000
1766 4 0.819 13.481 14.310 0.007 0.004 -0.004 0.000
1767 4 2.768 12.044 14.237 -0.000 0.000 -0.001 -0.000
1768 4 2.698 14.145 12.417 -0.003 0.006 -0.004 -0.000
1769 4 4.763 12.150 12.035 -0.003 0.014 0.004 -0.000
1770 4 4.933 13.869 13.921 0.007 -0.008 -0.004 0.000
1771 4 6.929 12.509 14.266 -0.016 0.003 0.011 0.000
1772 4 6.511 14.002 11.928 -0.010 -0.007 0.007 -0.000
1773 4 8.511 12.225 11.992 0.009 -0.001 -0.000 -0.000
1774 4 8.907 14.078 14.751 -0.003 0.004 -0.000 -0.000
1775 4 10.401 11.732 14.347 0.000 0.001 0.007 -0.000
1776 4 10.349 13.997 12.770 -0.006 0.003 -0.002 0.000
1777 4 11.931 11.984 12.339 -0.001 -0.006 0.003 -0.000
1778 4 12.209 13.751 14.482 0.001 0.005 0.004 -0.000
1779 4 14.339 12.348 13.907 0.008 0.008 0.004 0.000
1780 4 14.093 14.101 12.376 0.002 -0.003 -0.006 0.000
2004 4 -1.322 -1.016 15.610 0.007 -0.008 -0.005 -0.000
2006 4 0.729 -1.503 17.571 0.003 -0.002 -0.003 -0.000
2008 4 2.763 -1.095 16.231 0.002 -0.005 -0.005 -0.000
2010 4 4.689 -1.174 18.241 -0.010 -0.003 0.003 0.000
2012 4 6.743 -0.866 16.016 -0.009 0.004 -0.006 -0.000
2014 4 8.227 -1.512 17.789 -0.005 -0.009 0.007 0.000
2016 4 10.495 -0.809 15.876 0.000 0.004 -0.007 -0.000
2018 4 12.491 -0.953 17.670 -0.003 0.005 0.005 0.000
2020 4 14.491 -1.152 16.104 0.003 0.002 0.001 -0.000
2043 4 -1.092 1.154 17.725 -0.009 -0.007 -0.001 -0.000
2044 4 -1.515 3.152 15.491 0.001 0.005 -0.002 0.000
2045 4 0.574 0.786 15.837 -0.004 0.004 -0.001 0.000
2046 4 0.519 3.149 17.873 -0.007 0.006 0.005 0.000
2047 4 2.457 1.043 17.694 -0.008 0.007 0.006 -0.000
2048 4 2.615 2.652 15.580 0.016 -0.002 0.002 0.000
2049 4 4.547 0.672 16.086 -0.005 0.000 0.000 0.000
2050 4 4.648 2.938 17.987 0.010 -0.003 0.007 0.000
2051 4 6.452 0.750 17.928 0.010 -0.003 -0.001 -0.000
2052 4 6.859 2.795 15.639 0.004 -0.006 0.010 0.000
2053 4 8.521 0.750 16.007 0.004 -0.004 -0.007 -0.000
2054 4 8.194 2.615 17.553 0.000 -0.005 -0.003 -0.000
2055 4 10.291 0.643 17.759 -0.011 0.003 -0.004 0.000
2056 4 10.293 2.365 15.771 -0.004 0.000 0.000 -0.000
2057 4 12.187 0.932 15.918 0.004 0.002 -0.008 -0.000
2058 4 12.260 2.670 17.815 -0.007 0.014 -0.006 -0.000
2059 4 14.241 0.890 17.609 0.004 -0.008 0.000 0.000
2060 4 14.084 2.906 15.637 -0.003 -0.004 0.003 -0.000
2083 4 -1.337 4.838 17.653 0.002 0.007 -0.000 -0.000
2084 4 -1.376 6.301 15.853 -0.002 -0.003 0.000 -0.000
2085 4 0.680 4.743 15.593 0.006 0.002 -0.007 0.000
2086 4 0.693 6.355 17.473 0.004 0.010 -0.002 -0.000
2087 4 2.591 4.658 17.354 0.004 0.004 -0.012 0.000
2088 4 2.336 6.765 15.871 0.001 -0.008 0.000 -0.000
2089 4 4.561 4.581 15.886 -0.000 -0.005 -0.004 -0.000
2090 4 4.748 6.430 17.751 0.007 0.006 -0.008 -0.000
2091 4 6.817 4.741 17.338 0.001 -0.009 0.004 -0.000
2092 4 6.489 6.533 15.803 -0.001 -0.002 0.006 0.000
2093 4 8.714 4.610 15.809 -0.001 -0.008 0.001 -0.000
2094 4 8.552 6.380 17.794 -0.008 0.002 0.003 -0.000
2095 4 10.319 4.441 17.786 -0.005 0.007 -0.003 0.000
2096 4 10.071 6.425 15.346 0.002 0.004 0.006 0.000
2097 4 12.298 4.535 15.789 0.001 0.003 0.000 -0.000
2098 4 11.907 6.462 17.347 0.001 0.002 -0.004 -0.000
2099 4 14.155 4.395 17.838 -0.000 -0.004 -0.005 0.000
2100 4 14.146 6.740 16.000 -0.006 0.001 0.007 -0.000
2123 4 -0.945 8.121 17.878 -0.004 -0.000 0.002 -0.000
2124 4 -0.932 10.356 16.349 -0.006 -0.005 0.009 0.000
2125 4 0.913 8.646 16.286 -0.003 -0.005 -0.002 0.000
2126 4 1.432 10.030 17.905 -0.006 0.001 0.002 0.000
2127 4 2.842 8.165 17.422 -0.007 -0.005 -0.007 -0.000
2128 4 3.193 10.350 16.110 -0.007 0.008 0.001 0.000
2129 4 4.805 8.223 16.050 -0.005 0.009 0.000 -0.000
2130 4 4.911 10.462 18.239 0.002 0.007 0.002 -0.000
2131 4 6.974 8.037 18.108 0.005 0.004 0.003 0.000
2132 4 6.516 10.179 16.440 0.001 -0.003 -0.000 0.000
2133 4 8.614 8.281 16.075 0.003 0.009 -0.005 0.000
2134 4 8.493 9.943 18.208 -0.004 -0.005 -0.001 -0.000
2135 4 10.463 8.554 18.076 -0.008 -0.001 -0.007 -0.000
2136 4 10.087 9.985 16.288 -0.003 -0.008 -0.004 0.000
2137 4 11.988 8.542 16.109 -0.007 0.001 -0.002 0.000
2138 4 12.031 10.187 18.109 -0.002 0.003 0.007 -0.000
2139 4 13.911 8.170 17.677 -0.006 0.000 0.006 0.000
2140 4 14.481 10.386 15.860 0.005 -0.005 -0.008 -0.000
2163 4 -1.151 12.132 17.938 -0.003 0.004 0.003 -0.000
2164 4 -1.196 14.268 16.079 0.012 0.009 -0.000 -0.000
2165 4 1.218 12.409 16.131 0.005 0.006 -0.001 -0.000
2166 4 0.619 14.107 18.121 0.003 0.007 0.010 -0.000
2167 4 2.852 12.445 18.068 0.014 -0.006 0.002 0.000
2168 4 2.933 14.050 15.983 -0.003 -0.001 -0.007 -0.000
2169 4 4.960 12.287 16.132 0.007 -0.005 0.009 -0.000
2170 4 4.647 14.389 18.155 -0.001 0.009 -0.004 -0.000
2171 4 6.642 12.142 18.054 0.005 0.009 -0.003 0.000
2172 4 6.855 14.248 16.080 0.010 -0.001 -0.002 -0.000
2173 4 8.493 12.314 16.428 0.000 -0.011 0.006 -0.000
2174 4 8.448 14.396 17.983 0.001 -0.001 0.012 -0.000
2175 4 10.300 11.845 17.833 0.004 0.005 0.004 -0.000
2176 4 10.479 13.960 16.417 -0.008 0.004 -0.003 -0.000
2177 4 12.084 12.008 15.935 0.004 0.008 0.014 -0.000
2178 4 12.473 13.468 18.270 -0.005 0.007 -0.011 -0.000
2179 4 14.330 11.944 17.825 -0.003 0.003 0.010 0.000
2180 4 14.463 13.780 16.152 -0.003 -0.003 0.002 -0.000
2404 4 -0.932 -1.266 19.516 0.007 -0.005 -0.002 -0.000
2408 4 2.514 -0.785 19.337 0.007 0.003 -0.005 -0.000
2412 4 6.511 -1.094 19.883 0.013 0.002 0.005 -0.000
2416 4 10.429 -0.794 19.684 -0.009 -0.011 -0.002 -0.000
2420 4 13.976 -1.414 19.553 -0.005 -0.002 0.004 -0.000
2443 4 -1.035 0.901 21.108 0.003 -0.004 0.006 0.000
2444 4 -1.483 2.775 19.989 0.001 -0.002 0.011 0.000
2445 4 1.032 0.999 19.640 -0.005 0.001 -0.010 0.000
2448 4 2.720 2.825 19.481 0.002 0.012 0.002 0.000
2449 4 4.758 0.829 19.595 0.007 0.004 -0.009 -0.000
2452 4 6.465 2.741 19.537 -0.008 -0.000 0.008 0.000
2453 4 8.746 0.571 19.926 -0.002 0.006 0.002 0.000
2456 4 10.441 2.620 19.658 -0.001 -0.004 -0.006 0.000
2457 4 12.375 0.890 19.520 -0.004 -0.009 0.010 0.000
2460 4 14.066 2.488 19.712 0.000 0.001 0.003 -0.000
2484 4 -0.934 6.295 19.593 -0.000 0.005 -0.011 0.000
2485 4 0.799 4.606 19.672 -0.001 -0.004 0.002 0.000
2488 4 2.665 6.315 19.629 0.001 -0.003 -0.005 0.000
2489 4 4.811 4.822 19.690 0.005 -0.001 -0.007 -0.000
2492 4 6.790 6.212 19.702 0.000 -0.012 -0.002 0.000
2493 4 8.491 4.280 19.632 -0.005 -0.004 -0.001 -0.000
2496 4 10.430 6.448 19.629 -0.005 -0.011 -0.002 -0.000
2497 4 12.429 5.133 19.807 -0.002 0.013 -0.011 -0.000
2500 4 14.290 6.643 19.584 0.004 -0.007 -0.005 -0.000
2524 4 -1.171 10.148 19.578 0.003 -0.001 -0.000 0.000
2525 4 1.056 8.142 19.534 -0.008 0.003 0.002 -0.000
2528 4 2.684 10.310 20.142 -0.004 0.005 -0.009 0.000
2529 4 5.033 8.410 19.609 0.000 0.007 -0.004 0.000
2532 4 6.817 10.264 19.883 -0.003 -0.002 -0.022 -0.000
2533 4 8.652 8.052 19.938 -0.000 0.008 0.010 0.000
2536 4 10.264 10.272 20.121 0.015 0.002 0.008 0.000
2537 4 12.062 8.220 20.009 0.001 0.005 -0.013 0.000
2540 4 13.875 10.066 19.872 0.003 -0.011 -0.001 0.000
2564 4 -1.088 14.498 20.217 0.004 0.007 -0.008 0.000
2565 4 0.960 11.752 19.672 -0.004 -0.017 0.012 -0.000
2568 4 2.718 14.144 19.865 0.005 0.000 0.001 -0.000
2569 4 4.822 12.176 19.807 -0.002 0.002 0.001 0.000
2572 4 6.347 14.270 19.847 0.010 -0.008 0.003 -0.000
2573 4 8.202 12.534 19.634 0.004 0.003 0.000 -0.000
2576 4 10.236 13.524 19.732 0.011 -0.016 -0.004 0.000
2577 4 12.012 12.069 20.167 -0.000 0.003 -0.008 -0.000
2580 4 14.608 13.835 19.860 -0.002 -0.008 -0.006 -0.000
2486 4 0.976 6.045 21.514 0.004 -0.008 0.003 -0.000
2527 4 2.432 8.079 21.731 0.003 -0.003 -0.010 -0.000
2410 4 4.492 -1.115 21.346 0.011 0.005 -0.010 -0.000
2498 4 12.316 6.472 21.798 -0.001 -0.011 0.004 -0.000
2458 4 12.481 2.463 21.421 0.003 -0.001 -0.003 0.000
2459 4 14.381 0.865 21.628 -0.002 -0.010 -0.003 -0.000
2451 4 6.741 0.982 21.526 0.002 -0.007 0.009 0.000
2571 4 6.043 12.178 21.855 -0.002 0.004 -0.009 -0.000
2535 4 10.216 8.011 21.569 0.003 0.002 0.003 -0.000
2531 4 6.840 8.205 21.429 -0.005 -0.003 0.002 -0.000
2579 4 14.434 11.925 21.380 -0.002 0.000 -0.005 0.000
2490 4 4.640 6.618 21.502 0.004 0.004 -0.004 0.000
2499 4 14.230 4.711 21.679 0.001 -0.006 -0.004 0.000
2454 4 8.636 2.453 21.893 -0.003 -0.005 -0.002 0.000
2539 4 14.558 8.268 21.604 -0.010 -0.002 0.002 0.000
2538 4 12.418 9.961 21.916 0.011 0.007 -0.010 -0.000
2574 4 8.261 13.992 21.618 0.007 -0.000 -0.006 -0.000
2418 4 12.109 -0.859 21.567 -0.006 0.001 -0.002 0.000
2578 4 12.609 13.913 21.691 -0.001 0.006 -0.004 0.000
2570 4 4.569 14.229 22.108 -0.001 -0.001 0.007 0.000
2575 4 9.936 12.285 21.894 0.004 0.004 0.008 -0.000
2530 4 4.816 10.240 21.585 0.007 -0.006 -0.002 0.000
2567 4 2.773 12.342 21.693 -0.003 0.003 0.000 -0.000
2523 4 -0.977 8.289 21.397 0.002 0.001 0.002 -0.000
2526 4 0.282 10.280 21.909 -0.012 0.006 -0.003 -0.000
2534 4 8.295 10.403 21.605 0.001 -0.000 -0.004 0.000
2483 4 -1.206 4.663 21.712 -0.010 0.004 0.004 -0.000
2491 4 6.607 4.659 21.819 -0.014 0.009 0.009 -0.000
2566 4 0.756 13.879 21.668 0.011 0.006 -0.005 0.000
2455 4 10.318 1.023 21.949 0.008 -0.002 -0.003 -0.000
2563 4 -1.304 12.088 21.510 -0.000 -0.002 -0.010 -0.000
2406 4 0.777 -0.991 21.462 0.007 -0.001 0.003 0.000
2487 4 3.077 4.707 21.728 -0.001 0.001 0.007 -0.000
2447 4 2.641 0.961 21.274 -0.002 -0.004 0.008 -0.000
2446 4 0.714 2.808 21.552 0.001 -0.011 0.013 -0.000
2414 4 8.541 -1.092 21.562 0.006 0.002 -0.002 0.000
2450 4 4.696 2.716 21.511 0.001 -0.010 0.000 0.000
2494 4 8.729 6.312 21.910 -0.011 0.010 -0.007 0.000
2495 4 10.432 4.077 21.651 0.006 -0.002 -0.009 0.000
809 4 4.713 -2.960 4.397 0.013 -0.003 -0.003 0.000
1203 4 -1.142 -2.913 10.482 0.004 -0.006 0.010 0.000
803 4 -0.985 -2.858 6.531 0.016 -0.005 0.000 -0.000
1205 4 0.510 -3.027 8.468 -0.001 -0.020 0.003 -0.000
1409 4 4.862 16.151 8.664 -0.006 0.002 -0.008 -0.000
411 4 6.689 -2.952 2.434 0.011 -0.008 0.002 -0.000
19 4 14.694 -2.756 -1.141 -0.007 0.002 -0.002 0.000
403 4 -1.383 -2.568 2.258 -0.002 -0.000 -0.009 -0.000
1019 4 14.354 15.883 6.736 0.006 0.002 0.003 0.000
2415 4 10.088 -3.001 22.165 0.006 -0.008 0.004 0.000
1003 4 -1.097 16.018 6.735 0.006 -0.001 -0.001 0.000
2219 4 14.522 15.557 17.985 0.008 -0.006 -0.005 -0.000
17 4 12.534 -2.580 -3.195 -0.004 0.002 -0.011 0.000
2411 4 6.828 -3.083 21.440 -0.004 -0.009 0.006 0.000
1817 4 12.423 15.959 12.701 0.015 0.005 -0.002 -0.000
1405 4 1.050 16.116 8.430 -0.001 0.007 0.004 0.000
1815 4 10.268 15.988 14.075 0.003 0.001 -0.010 -0.000
1013 4 8.700 15.760 4.790 0.006 0.011 0.002 -0.000
1407 4 2.417 16.070 10.837 -0.005 -0.000 -0.001 0.000
15 4 10.007 -2.575 -1.946 0.007 0.002 -0.004 -0.000
407 4 2.460 -2.765 2.588 0.001 0.004 0.007 -0.000
417 4 12.337 -2.852 0.518 0.000 -0.004 -0.003 -0.000
172 4 6.624 14.264 -2.685 -0.001 -0.002 -0.002 0.000
2615 4 10.897 16.025 21.602 -0.002 0.003 0.003 0.000
607 4 2.479 15.911 2.457 -0.005 0.001 -0.000 -0.000
3 4 -1.390 -2.495 -1.352 -0.003 0.008 0.006 0.000
2521 4 -2.945 8.110 19.378 -0.003 -0.002 -0.007 0.000
1015 4 10.516 15.492 6.277 -0.005 0.001 0.004 0.000
7 4 2.747 -2.585 -1.385 0.002 0.002 -0.007 0.000
1005 4 0.651 15.582 4.835 -0.002 -0.006 0.003 -0.000
1302 4 15.953 6.577 10.438 0.005 -0.007 0.008 -0.000
562 4 -2.785 14.233 2.918 0.008 0.002 0.002 -0.000
1419 4 14.225 15.993 10.248 0.002 0.008 0.005 -0.000
1017 4 12.206 15.480 4.650 -0.005 0.004 0.005 -0.000
1605 4 0.561 -2.679 12.147 0.000 -0.003 -0.002 -0.000
169 4 5.049 11.682 -2.720 0.002 -0.008 -0.003 -0.000
2421 4 15.905 -2.855 19.558 -0.000 0.001 0.007 0.000
162 4 -2.950 14.218 -1.269 -0.008 -0.012 -0.007 -0.000
2122 4 -2.839 10.193 17.880 -0.005 0.006 0.001 -0.000
2041 4 -2.984 0.994 15.797 -0.007 0.007 0.002 0.000
2482 4 -2.927 6.761 21.736 0.008 -0.002 0.010 0.000
1403 4 -0.790 15.936 10.290 0.001 0.008 -0.009 -0.000
815 4 10.683 -2.730 6.348 -0.002 0.003 0.002 0.000
405 4 0.683 -2.667 0.635 -0.000 0.006 0.007 0.000
2422 4 15.728 -1.256 21.616 -0.008 0.008 0.001 0.000
2402 4 -2.971 -0.919 21.778 -0.004 -0.001 -0.004 -0.000