ITEM: TIMESTEP
45000
ITEM: NUMBER OF ATOMS
32000
ITEM: BOX BOUNDS pp pp pp
-3.037444 73.517444
-3.094210 73.574210
-2.952498 73.432498
ITEM: ATOMS id type x y z vx vy vz q
6 4 0.516 -1.376 -1.123 0.000 -0.008 -0.002 -0.000
10 4 5.083 -1.286 -0.639 -0.005 0.007 0.005 0.000
14 4 8.781 -1.353 -0.789 -0.005 -0.004 -0.002 0.000
18 4 12.320 -1.071 -0.723 -0.004 0.001 -0.002 0.000
43 4 -1.115 0.480 -1.226 -0.005 0.002 -0.004 -0.000
46 4 0.755 2.417 -0.701 0.000 0.006 -0.008 -0.000
47 4 3.201 0.326 -0.983 -0.004 -0.015 -0.002 -0.000
50 4 4.708 2.483 -0.906 -0.009 0.004 -0.001 -0.000
51 4 6.697 0.458 -1.044 -0.001 -0.002 0.002 0.000
54 4 8.234 2.675 -0.983 -0.000 0.004 -0.004 0.000
55 4 10.099 0.661 -0.841 -0.006 0.006 -0.002 0.000
58 4 12.149 2.813 -1.012 0.002 0.006 -0.002 0.000
59 4 14.131 0.860 -1.028 -0.006 0.004 0.000 0.000
83 4 -1.565 4.562 -1.361 0.014 0.004 0.009 -0.000
86 4 0.659 6.740 -1.044 0.010 -0.001 -0.009 -0.000
87 4 2.538 4.731 -1.371 -0.009 0.005 0.002 -0.000
90 4 4.162 6.572 -1.253 0.003 -0.004 -0.001 -0.000
91 4 6.320 4.930 -1.206 -0.003 -0.000 -0.004 -0.000
94 4 8.169 6.662 -1.160 0.013 -0.010 -0.001 0.000
95 4 10.474 4.792 -1.298 -0.007 -0.000 -0.012 0.000
98 4 12.351 6.416 -1.203 0.008 -0.000 0.004 -0.000
99 4 14.146 4.633 -1.305 -0.001 0.011 0.007 0.000
123 4 -1.094 8.781 -0.782 -0.002 -0.005 -0.004 -0.000
126 4 0.645 10.807 -1.319 -0.006 -0.004 0.002 -0.000
127 4 2.493 9.007 -1.388 -0.002 0.007 -0.002 -0.000
130 4 4.838 10.394 -1.242 -0.002 -0.001 0.007 -0.000
131 4 6.700 8.741 -1.187 -0.000 -0.005 -0.003 -0.000
134 4 8.525 10.116 -0.497 -0.004 0.002 -0.009 0.000
135 4 10.565 8.303 -0.760 -0.009 -0.008 0.002 -0.000
138 4 12.489 10.258 -0.846 -0.006 0.004 -0.003 -0.000
139 4 14.300 7.844 -0.599 -0.000 -0.001 0.004 -0.000
163 4 -1.265 12.481 -1.095 0.001 -0.008 0.002 -0.000
166 4 0.456 14.278 -1.293 -0.002 -0.001 0.005 0.000
167 4 2.891 12.073 -1.193 -0.005 -0.003 0.013 -0.000
170 4 4.772 13.788 -1.410 0.007 0.005 0.007 -0.000
171 4 6.795 12.200 -0.833 0.004 -0.003 0.003 -0.000
174 4 8.727 14.120 -1.078 0.003 0.006 -0.006 0.000
175 4 10.150 12.104 -1.041 0.001 -0.000 -0.006 0.000
178 4 12.174 13.849 -0.995 0.004 -0.011 0.011 0.000
179 4 14.179 12.059 -0.966 0.002 -0.002 0.002 -0.000
404 4 -1.636 -1.105 0.800 0.006 -0.002 0.002 -0.000
406 4 0.855 -1.106 2.837 0.006 0.000 -0.002 -0.000
408 4 2.705 -1.117 0.599 0.002 0.007 0.011 -0.000
410 4 4.645 -0.989 2.472 0.009 0.006 0.004 0.000
412 4 6.803 -1.118 1.213 0.006 -0.002 -0.012 0.000
414 4 8.737 -1.246 2.980 -0.001 0.004 -0.000 0.000
416 4 10.571 -1.468 1.074 0.001 -0.005 -0.004 0.000
418 4 12.288 -1.317 2.668 -0.007 -0.004 0.003 -0.000
420 4 14.261 -0.925 0.951 -0.006 0.007 0.009 -0.000
443 4 -1.334 0.698 2.926 -0.001 0.003 -0.011 0.000
444 4 -1.303 2.676 0.883 -0.000 0.003 0.005 -0.000
445 4 0.830 0.557 0.818 0.001 0.003 0.004 -0.000
446 4 1.195 2.493 2.284 0.002 0.009 -0.004 -0.000
447 4 2.926 0.636 2.216 0.001 0.004 0.012 -0.000
448 4 2.803 3.183 0.647 0.007 -0.002 -0.008 -0.000
449 4 5.011 0.802 0.954 0.008 -0.000 0.010 -0.000
450 4 4.482 2.632 2.331 -0.004 -0.005 0.004 -0.000
451 4 6.702 0.831 3.025 0.001 -0.002 -0.009 0.000
452 4 6.626 2.618 0.375 -0.004 -0.000 0.007 -0.000
453 4 8.640 0.853 0.964 0.010 -0.002 -0.001 0.000
454 4 8.392 2.715 2.639 -0.004 -0.001 -0.008 -0.000
455 4 10.533 0.718 2.699 0.003 -0.006 -0.004 0.000
456 4 10.033 2.952 0.715 -0.001 0.002 0.005 0.000
457 4 12.329 1.030 1.145 0.001 0.003 0.002 -0.000
458 4 12.895 2.793 3.259 -0.004 0.008 -0.003 -0.000
459 4 14.314 0.581 2.888 -0.008 -0.000 -0.001 0.000
460 4 14.129 2.578 0.843 0.002 0.010 0.006 0.000
483 4 -1.355 4.616 2.561 0.003 -0.001 -0.003 -0.000
484 4 -1.447 6.377 0.515 0.006 0.004 -0.001 -0.000
485 4 0.513 4.654 0.718 -0.008 0.010 0.001 -0.000
486 4 0.771 6.583 2.225 -0.004 -0.007 -0.000 0.000
487 4 2.591 4.624 2.724 -0.000 -0.003 0.000 -0.000
488 4 2.682 6.096 0.561 -0.001 0.006 -0.007 -0.000
489 4 4.835 4.393 0.578 -0.002 -0.002 -0.001 -0.000
490 4 4.388 6.369 2.282 0.004 0.005 0.001 -0.000
491 4 6.705 4.596 2.643 0.002 -0.009 -0.008 -0.000
492 4 6.469 6.591 1.078 0.002 -0.004 -0.003 -0.000
493 4 8.259 4.537 0.545 0.022 -0.007 0.001 -0.000
494 4 8.605 6.010 2.724 -0.007 0.001 0.012 0.000
495 4 10.268 4.332 2.839 -0.010 0.008 0.003 -0.000
496 4 10.326 6.329 0.936 -0.003 0.000 -0.006 0.000
497 4 12.117 4.185 1.028 -0.013 0.003 -0.004 0.000
498 4 12.248 6.251 2.941 -0.004 0.001 -0.003 -0.000
499 4 14.336 4.707 3.009 0.001 0.007 0.002 -0.000
500 4 14.172 6.241 1.200 0.001 0.004 0.001 -0.000
523 4 -1.115 8.050 2.922 0.008 -0.007 -0.005 0.000
524 4 -1.489 10.465 1.232 0.004 0.001 0.001 0.000
525 4 0.538 8.707 1.008 0.003 -0.000 -0.012 0.000
526 4 0.991 10.241 2.766 -0.008 0.011 -0.002 0.000
527 4 2.471 8.406 2.556 -0.006 -0.001 -0.005 0.000
528 4 2.454 10.629 0.765 0.005 -0.001 -0.000 0.000
529 4 4.332 8.290 0.638 0.002 0.005 0.002 -0.000
530 4 4.413 10.437 3.041 -0.002 0.002 -0.001 -0.000
531 4 6.257 8.565 3.041 -0.008 -0.005 -0.000 0.000
532 4 5.894 10.167 0.924 0.005 0.003 -0.003 -0.000
533 4 8.362 7.926 1.172 0.001 0.008 0.001 0.000
534 4 8.582 10.360 2.508 -0.013 -0.003 0.001 0.000
535 4 10.520 8.424 2.837 0.001 0.008 0.004 0.000
536 4 10.699 10.319 1.094 -0.006 -0.005 0.007 0.000
537 4 12.653 8.229 1.325 -0.003 0.005 0.007 0.000
538 4 12.338 10.601 2.706 0.006 -0.010 0.013 0.000
539 4 14.244 8.395 2.891 -0.004 -0.000 -0.005 0.000
540 4 14.024 10.506 1.009 0.002 0.010 0.015 0.000
563 4 -1.330 12.332 2.943 -0.001 0.004 0.003 0.000
564 4 -1.465 14.080 0.997 -0.006 -0.000 -0.004 0.000
565 4 1.011 12.559 0.279 -0.004 0.008 -0.001 0.000
566 4 0.737 14.174 2.907 -0.001 -0.003 0.004 0.000
567 4 2.574 12.523 2.489 0.001 0.005 -0.002 0.000
568 4 2.883 13.975 0.413 0.005 0.010 -0.003 0.000
569 4 4.613 12.246 0.825 -0.009 -0.001 -0.005 -0.000
570 4 4.547 14.202 2.749 0.004 -0.003 -0.003 -0.000
571 4 6.451 11.779 2.535 0.001 0.001 -0.001 -0.000
572 4 6.672 14.143 0.972 0.008 0.008 0.001 0.000
573 4 8.963 12.388 0.973 -0.002 -0.006 -0.007 0.000
574 4 8.668 14.431 2.675 -0.011 -0.002 -0.000 0.000
575 4 10.362 12.172 3.088 -0.000 0.003 0.003 0.000
576 4 10.267 14.211 0.899 -0.008 -0.005 -0.002 0.000
577 4 12.198 12.488 0.919 -0.001 0.005 -0.003 0.000
578 4 12.260 14.130 2.986 -0.004 0.008 -0.012 0.000
579 4 14.179 12.159 2.848 -0.012 -0.008 -0.008 0.000
580 4 14.314 14.111 1.394 -0.001 0.003 0.001 0.000
804 4 -1.201 -1.058 4.719 -0.010 0.004 -0.008 0.000
806 4 1.044 -0.932 6.665 0.005 0.001 -0.001 0.000
808 4 2.800 -1.182 4.608 0.002 0.003 -0.007 0.000
810 4 4.901 -1.423 6.360 0.008 -0.001 -0.001 0.000
812 4 6.490 -1.617 4.390 0.003 -0.003 -0.001 0.000
814 4 8.754 -1.378 6.463 -0.002 -0.008 -0.007 0.000
816 4 10.474 -1.258 4.298 0.001 -0.001 -0.001 -0.000
818 4 12.549 -1.163 6.634 0.005 -0.003 0.003 0.000
820 4 14.376 -1.389 4.818 -0.002 -0.008 -0.012 0.000
843 4 -1.158 1.018 6.940 0.001 0.001 -0.006 0.000
844 4 -1.279 2.765 4.576 0.008 -0.008 -0.001 -0.000
845 4 0.862 0.842 4.528 0.002 0.000 -0.000 0.000
846 4 0.948 2.735 6.710 0.008 -0.000 -0.002 0.000
847 4 3.100 0.622 6.538 0.007 0.009 0.001 0.000
848 4 2.835 2.610 4.001 -0.003 0.003 0.002 -0.000
849 4 4.633 0.753 4.425 -0.000 0.000 -0.008 0.000
850 4 4.704 2.912 6.295 -0.002 -0.003 0.004 0.000
851 4 6.318 0.409 6.485 0.015 -0.003 0.006 0.000
852 4 6.224 2.718 4.578 -0.000 -0.002 -0.005 0.000
853 4 8.452 0.658 4.363 0.005 -0.008 0.001 -0.000
854 4 7.984 2.384 6.609 -0.001 -0.005 0.008 0.000
855 4 10.315 1.135 6.827 -0.009 0.001 -0.002 0.000
856 4 10.531 2.685 4.297 0.009 -0.000 -0.017 -0.000
857 4 12.452 0.968 4.774 0.001 0.004 0.001 -0.000
858 4 12.211 2.748 6.490 -0.000 0.005 -0.003 -0.000
859 4 14.247 0.403 6.587 0.005 0.003 0.006 -0.000
860 4 14.557 2.658 4.690 0.004 0.000 0.007 -0.000
883 4 -1.041 4.574 6.374 -0.006 0.000 -0.003 -0.000
884 4 -1.269 6.282 4.927 0.002 -0.001 0.004 0.000
885 4 0.618 4.356 4.565 -0.012 -0.001 -0.003 0.000
886 4 1.347 6.116 6.480 0.002 -0.001 -0.012 0.000
887 4 2.698 4.394 5.787 0.001 0.001 -0.005 0.000
888 4 2.640 6.609 4.363 -0.010 0.004 -0.009 0.000
889 4 4.712 4.817 4.538 0.008 -0.004 0.002 0.000
890 4 4.459 6.219 6.959 0.001 -0.008 0.007 0.000
891 4 6.982 4.637 6.646 -0.001 -0.008 0.007 0.000
892 4 6.640 6.452 4.368 -0.004 0.003 0.013 0.000
893 4 8.433 4.053 4.628 -0.002 0.004 -0.004 -0.000
894 4 8.473 6.776 6.543 -0.007 -0.004 -0.003 0.000
895 4 10.150 4.256 6.568 -0.003 -0.002 -0.004 -0.000
896 4 10.401 6.113 4.692 -0.003 0.006 0.001 0.000
897 4 12.839 4.514 4.776 0.007 0.010 0.001 -0.000
898 4 12.251 6.307 7.143 0.012 0.002 -0.001 -0.000
899 4 14.451 4.729 6.582 0.001 -0.004 0.002 -0.000
900 4 14.564 6.779 4.749 0.002 -0.004 0.010 -0.000
923 4 -0.838 8.109 6.498 -0.002 0.007 0.005 0.000
924 4 -0.935 10.017 4.242 0.004 0.002 -0.008 0.000
925 4 0.863 8.825 4.537 0.010 0.014 0.009 0.000
926 4 0.935 10.084 6.589 -0.002 -0.002 0.007 0.000
927 4 2.836 8.324 6.425 0.002 0.004 -0.004 0.000
928 4 2.693 10.360 4.556 -0.009 -0.002 -0.001 0.000
929 4 4.496 8.073 4.603 0.010 -0.006 0.003 0.000
930 4 4.667 10.269 6.575 0.002 0.004 0.002 -0.000
931 4 6.249 8.005 6.464 0.007 -0.001 -0.003 0.000
932 4 6.384 10.511 4.733 0.011 -0.005 0.001 -0.000
933 4 8.177 8.362 4.435 -0.007 0.016 0.001 0.000
934 4 8.483 10.038 6.163 0.005 -0.003 -0.012 0.000
935 4 10.616 8.039 6.277 0.007 -0.006 0.008 0.000
936 4 10.507 10.155 4.638 -0.006 -0.002 -0.004 0.000
937 4 12.628 8.603 4.808 0.010 0.007 -0.011 0.000
938 4 12.549 10.296 6.774 -0.003 0.011 0.003 0.000
939 4 14.830 8.067 6.888 0.006 -0.007 0.001 -0.000
940 4 14.593 9.989 5.001 0.002 0.013 -0.003 0.000
963 4 -1.050 11.991 6.505 -0.005 -0.002 0.006 0.000
964 4 -1.075 13.960 4.647 0.008 0.004 0.003 0.000
965 4 0.563 12.220 4.574 0.006 -0.010 0.006 0.000
966 4 0.733 13.855 6.515 -0.007 -0.002 0.002 -0.000
967 4 2.588 11.882 6.613 -0.005 -0.005 -0.008 -0.000
968 4 2.617 14.158 4.987 0.001 0.000 -0.003 0.000
969 4 4.862 12.267 4.946 0.005 -0.000 -0.011 -0.000
970 4 4.940 13.818 6.725 0.004 -0.004 -0.002 -0.000
971 4 6.504 11.825 6.546 -0.009 -0.002 -0.007 -0.000
972 4 6.817 14.156 4.592 0.008 -0.005 0.008 -0.000
973 4 8.301 11.549 4.763 -0.004 0.006 0.003 -0.000
974 4 8.178 14.213 6.967 -0.005 -0.000 0.006 -0.000
975 4 10.068 12.159 6.430 -0.006 -0.007 0.003 -0.000
976 4 9.987 14.170 4.778 -0.009 -0.001 -0.001 -0.000
977 4 12.446 12.055 4.878 0.001 0.008 0.001 0.000
978 4 12.678 14.158 6.104 -0.004 0.008 -0.009 -0.000
979 4 14.309 12.349 6.488 0.000 0.003 0.004 -0.000
980 4 14.563 14.117 4.685 -0.001 0.001 -0.008 0.000
1204 4 -1.187 -0.931 8.730 0.004 -0.005 -0.005 0.000
1206 4 1.336 -1.385 10.137 0.003 -0.001 -0.007 -0.000
1208 4 2.890 -1.002 8.388 0.001 0.003 0.005 0.000
1210 4 4.376 -1.405 10.260 -0.006 0.016 0.001 -0.000
1212 4 6.676 -1.446 8.229 0.004 0.003 -0.007 -0.000
1214 4 8.600 -1.107 10.115 0.007 0.000 0.006 0.000
1216 4 10.684 -1.190 8.678 -0.008 0.013 -0.002 0.000
1218 4 12.228 -1.258 10.501 -0.004 -0.006 0.005 0.000
1220 4 14.366 -1.617 8.355 0.009 0.006 -0.000 0.000
1243 4 -1.334 1.125 10.415 0.004 0.002 0.008 -0.000
1244 4 -1.117 3.080 8.217 -0.000 0.004 -0.002 -0.000
1245 4 0.825 1.066 8.651 -0.005 -0.003 -0.001 0.000
1246 4 0.687 2.730 10.433 0.012 0.003 0.003 -0.000
1247 4 2.819 0.744 10.256 -0.007 0.003 -0.002 -0.000
1248 4 3.067 2.640 8.627 -0.004 0.002 0.001 -0.000
1249 4 4.879 0.653 8.461 -0.005 0.000 -0.000 0.000
1250 4 4.685 2.358 10.442 0.003 0.007 -0.003 -0.000
1251 4 6.467 0.094 10.139 -0.005 -0.005 -0.002 -0.000
1252 4 6.767 3.051 8.452 -0.010 0.007 -0.013 0.000
1253 4 8.322 0.534 8.050 0.001 -0.008 -0.001 0.000
1254 4 8.504 2.522 10.273 -0.005 -0.013 -0.002 -0.000
1255 4 10.603 0.727 10.368 -0.006 -0.008 -0.011 -0.000
1256 4 10.518 2.539 8.671 0.005 0.004 0.003 -0.000
1257 4 12.662 0.594 8.695 -0.001 0.001 -0.000 0.000
1258 4 13.000 2.182 10.229 -0.008 0.005 -0.006 -0.000
1259 4 14.586 0.434 10.567 -0.007 0.002 -0.006 0.000
1260 4 14.238 2.736 8.054 0.001 0.000 -0.003 -0.000
1283 4 -1.107 4.829 10.169 -0.007 -0.006 -0.005 -0.000
1284 4 -0.838 6.196 8.315 -0.003 -0.004 -0.003 -0.000
1285 4 0.991 4.768 8.794 0.001 0.001 -0.009 0.000
1286 4 0.898 6.431 10.860 0.005 0.005 -0.005 0.000
1287 4 2.635 4.451 10.431 0.006 -0.003 -0.004 -0.000
1288 4 3.175 6.326 9.017 -0.009 -0.007 -0.005 0.000
1289 4 4.710 4.538 8.677 0.008 0.012 -0.008 0.000
1290 4 4.689 6.534 10.995 -0.006 0.005 0.001 0.000
1291 4 6.544 4.612 10.267 -0.007 -0.000 -0.003 -0.000
1292 4 6.170 6.507 8.679 0.003 0.005 -0.009 0.000
1293 4 8.377 4.693 8.600 -0.005 -0.010 0.005 -0.000
1294 4 8.454 6.414 10.594 -0.001 -0.002 0.001 0.000
1295 4 10.148 4.296 10.451 -0.008 -0.001 -0.011 -0.000
1296 4 10.489 6.416 8.799 -0.008 -0.008 -0.010 0.000
1297 4 12.269 4.394 8.640 -0.006 0.008 0.006 -0.000
1298 4 12.543 6.897 10.237 0.004 0.002 0.014 0.000
1299 4 14.451 4.773 10.288 0.000 -0.002 -0.012 -0.000
1300 4 14.355 6.582 8.594 -0.002 0.001 -0.005 -0.000
1323 4 -0.914 8.170 10.348 -0.006 -0.003 -0.012 -0.000
1324 4 -0.966 10.074 8.385 -0.004 -0.007 -0.001 0.000
1325 4 0.852 7.895 8.568 -0.007 -0.002 -0.006 0.000
1326 4 0.559 10.105 10.589 0.003 0.000 0.001 0.000
1327 4 2.549 8.502 10.659 -0.005 0.004 -0.003 0.000
1328 4 2.436 9.847 8.708 0.013 -0.003 0.009 -0.000
1329 4 4.360 8.556 8.933 -0.007 -0.010 0.007 -0.000
1330 4 4.209 10.471 10.829 -0.005 0.000 0.011 0.000
1331 4 6.581 8.422 10.620 -0.001 0.005 0.002 0.000
1332 4 6.519 9.655 8.592 0.006 0.000 -0.008 -0.000
1333 4 8.600 8.074 8.751 0.004 -0.004 -0.001 0.000
1334 4 8.542 10.198 10.176 0.012 0.003 -0.000 0.000
1335 4 10.361 8.321 10.484 0.005 0.003 0.005 0.000
1336 4 10.155 9.977 8.077 -0.005 -0.002 -0.010 -0.000
1337 4 12.363 8.604 8.326 0.002 -0.010 0.008 0.000
1338 4 12.322 10.340 10.248 -0.005 0.002 -0.005 0.000
1339 4 14.273 8.980 10.071 -0.007 0.004 0.006 0.000
1340 4 14.547 10.699 8.108 -0.000 0.002 -0.002 -0.000
1363 4 -0.808 12.305 10.416 -0.007 0.001 0.003 -0.000
1364 4 -1.132 14.242 8.569 -0.000 -0.002 -0.005 -0.000
1365 4 0.558 12.293 8.361 -0.004 0.002 -0.004 -0.000
1366 4 0.800 14.528 10.184 -0.005 0.003 -0.004 -0.000
1367 4 2.304 12.139 10.121 -0.008 -0.008 -0.001 -0.000
1368 4 2.746 13.958 8.230 -0.003 -0.002 0.008 -0.000
1369 4 4.410 11.862 8.592 0.004 0.001 -0.009 -0.000
1370 4 4.324 13.902 10.837 -0.003 0.003 0.005 -0.000
1371 4 6.116 11.858 10.339 0.005 -0.002 -0.009 -0.000
1372 4 6.514 13.716 8.609 0.003 -0.001 -0.001 -0.000
1373 4 8.227 11.884 8.299 -0.001 0.000 -0.011 -0.000
1374 4 8.402 14.166 10.002 0.008 0.005 -0.009 -0.000
1375 4 10.432 12.202 10.288 -0.009 0.006 0.005 -0.000
1376 4 10.123 13.950 8.232 -0.001 -0.008 -0.004 -0.000
1377 4 12.285 12.446 8.208 -0.008 0.008 -0.003 -0.000
1378 4 12.562 13.919 10.608 0.006 -0.000 -0.000 -0.000
1379 4 14.499 11.974 10.408 -0.004 -0.006 -0.000 0.000
1380 4 14.056 14.522 8.440 -0.000 -0.010 -0.003 -0.000
1604 4 -1.241 -1.294 12.238 0.002 0.002 -0.001 -0.000
1606 4 0.811 -0.845 13.928 -0.011 -0.011 0.008 -0.000
1608 4 2.958 -1.203 12.065 0.004 -0.000 0.005 -0.000
1610 4 4.979 -1.351 13.618 -0.005 -0.002 0.003 -0.000
1612 4 6.914 -1.331 12.120 -0.005 -0.003 0.002 -0.000
1614 4 8.760 -1.346 14.012 0.008 0.004 -0.005 -0.000
1616 4 10.249 -1.475 12.108 -0.000 -0.005 0.010 0.000
1618 4 12.364 -1.187 14.457 -0.005 -0.007 -0.001 -0.000
1620 4 14.560 -1.593 11.942 0.000 -0.003 -0.004 0.000
1643 4 -1.236 0.971 14.150 -0.001 0.005 -0.009 -0.000
1644 4 -1.271 2.916 12.366 0.005 0.012 -0.003 -0.000
1645 4 0.777 0.805 12.065 -0.001 -0.013 -0.007 -0.000
1646 4 0.761 2.575 13.946 -0.001 0.003 0.005 -0.000
1647 4 2.800 0.574 13.827 0.000 -0.010 0.009 -0.000
1648 4 2.924 2.303 11.946 0.007 0.010 0.001 -0.000
1649 4 4.941 0.577 12.113 -0.005 0.004 -0.004 -0.000
1650 4 4.417 2.195 14.079 0.001 0.003 -0.000 -0.000
1651 4 6.729 0.827 13.768 -0.003 -0.006 0.003 -0.000
1652 4 6.814 2.437 11.781 0.009 -0.005 -0.004 -0.000
1653 4 8.728 0.610 12.110 -0.004 -0.002 0.002 -0.000
1654 4 8.489 2.869 13.961 0.006 -0.006 0.004 -0.000
1655 4 10.703 0.574 14.053 -0.003 -0.003 0.005 -0.000
1656 4 10.399 2.463 12.316 0.010 0.009 0.008 -0.000
1657 4 12.518 0.863 12.155 -0.001 0.007 -0.006 -0.000
1658 4 12.320 2.826 13.683 -0.003 0.002 -0.003 -0.000
1659 4 14.437 0.734 14.269 0.004 -0.002 0.002 -0.000
1660 4 14.608 2.616 12.431 -0.001 0.002 0.010 -0.000
1683 4 -0.950 4.605 14.262 0.001 -0.001 -0.000 0.000
1684 4 -1.240 6.614 12.187 -0.000 0.009 -0.000 0.000
1685 4 0.558 4.390 12.470 0.003 0.004 0.002 -0.000
1686 4 0.893 6.539 14.131 -0.003 -0.009 0.003 0.000
1687 4 2.736 4.274 14.208 0.001 0.005 -0.004 -0.000
1688 4 2.649 6.647 12.464 -0.007 -0.001 -0.002 0.000
1689 4 4.794 4.313 12.165 0.002 -0.007 -0.002 -0.000
1690 4 4.539 6.244 13.824 0.010 0.009 -0.004 0.000
1691 4 6.788 4.586 13.919 -0.007 0.001 -0.002 -0.000
1692 4 6.475 6.345 12.521 -0.002 0.006 0.010 0.000
1693 4 8.557 4.598 12.283 -0.006 0.005 -0.008 -0.000
1694 4 8.566 6.584 14.143 0.001 0.010 0.012 0.000
1695 4 10.670 4.856 14.131 0.014 0.002 -0.006 0.000
1696 4 10.437 6.348 12.212 0.008 0.003 0.003 0.000
1697 4 12.434 4.490 11.725 0.002 -0.007 -0.009 -0.000
1698 4 12.720 6.297 14.516 -0.004 -0.007 -0.000 0.000
1699 4 14.174 4.576 13.598 -0.013 -0.001 0.000 -0.000
1700 4 14.390 6.527 12.357 -0.013 0.008 -0.005 0.000
1723 4 -1.169 8.434 14.276 0.012 0.004 0.002 0.000
1724 4 -1.130 9.956 12.517 0.003 -0.002 0.010 0.000
1725 4 0.697 8.564 12.536 -0.002 -0.005 0.004 0.000
1726 4 0.746 10.261 14.715 0.004 -0.007 0.010 0.000
1727 4 2.916 8.556 13.912 -0.005 -0.000 -0.005 0.000
1728 4 2.549 10.508 12.637 0.011 -0.007 -0.006 0.000
1729 4 4.416 8.693 12.409 -0.001 -0.004 0.004 0.000
1730 4 5.008 10.573 14.111 -0.009 -0.002 0.003 0.000
1731 4 6.744 8.473 14.014 -0.004 0.003 0.009 0.000
1732 4 6.683 10.451 12.306 -0.007 -0.001 -0.010 0.000
1733 4 8.595 8.278 12.396 -0.000 -0.002 -0.013 0.000
1734 4 8.644 10.303 13.888 0.007 -0.012 -0.005 0.000
1735 4 10.700 7.994 14.609 0.017 -0.004 0.006 0.000
1736 4 10.352 10.294 12.348 -0.006 -0.001 0.009 0.000
1737 4 12.128 7.950 12.581 -0.007 -0.003 -0.004 0.000
1738 4 12.271 10.590 13.969 -0.002 0.008 -0.000 0.000
1739 4 13.859 8.484 13.999 -0.001 -0.002 0.000 0.000
1740 4 14.525 10.342 12.212 0.005 -0.004 -0.008 -0.000
1763 4 -1.359 12.269 14.216 -0.010 0.010 0.000 0.000
1764 4 -1.098 14.137 12.306 0.005 0.006 0.002 -0.000
1765 4 0.484 12.388 11.922 0.002 -0.007 -0.003 0.000
1766 4 0.290 13.963 14.206 -0.007 0.006 -0.007 0.000
1767 4 2.841 12.474 14.141 -0.013 -0.003 0.007 -0.000
1768 4 2.299 14.195 12.100 -0.011 -0.006 0.000 -0.000
1769 4 4.705 12.306 12.292 0.001 -0.001 0.011 -0.000
1770 4 4.522 14.552 14.347 0.002 -0.004 0.003 0.000
1771 4 6.985 12.198 13.842 -0.006 0.006 0.001 0.000
1772 4 6.505 14.191 12.242 0.005 0.007 0.010 -0.000
1773 4 8.388 12.152 11.629 0.006 -0.001 0.010 0.000
1774 4 8.092 14.665 14.212 0.001 -0.004 0.002 0.000
1775 4 10.445 12.189 13.922 0.007 -0.008 0.019 0.000
1776 4 10.347 14.277 12.350 -0.001 -0.002 0.002 0.000
1777 4 12.533 12.141 12.314 -0.003 -0.006 0.005 0.000
1778 4 12.187 13.758 14.240 -0.007 0.001 0.000 -0.000
1779 4 14.413 12.013 14.112 -0.006 -0.006 -0.009 -0.000
1780 4 14.398 13.850 12.032 -0.002 -0.002 -0.002 -0.000
2004 4 -1.415 -1.246 16.206 0.004 -0.003 0.000 -0.000
2006 4 0.493 -1.252 18.096 0.008 -0.003 -0.011 0.000
2008 4 2.742 -0.942 15.680 0.003 0.002 0.001 -0.000
2010 4 5.142 -0.728 18.051 -0.003 0.000 -0.002 0.000
2012 4 6.509 -1.149 15.630 0.003 0.002 -0.001 0.000
2014 4 8.688 -0.849 17.742 0.001 -0.008 -0.004 -0.000
2016 4 10.395 -1.402 15.941 0.008 -0.003 -0.008 -0.000
2018 4 11.718 -0.884 17.777 -0.005 0.005 -0.000 -0.000
2020 4 14.316 -0.946 16.477 -0.009 0.001 -0.003 -0.000
2043 4 -0.800 0.984 18.014 -0.000 0.000 -0.005 -0.000
2044 4 -0.972 2.890 16.028 -0.005 0.000 0.010 -0.000
2045 4 0.450 0.365 16.033 0.004 -0.001 -0.004 -0.000
2046 4 0.904 2.780 17.844 0.003 0.000 -0.010 -0.000
2047 4 2.931 0.807 17.719 0.001 -0.006 -0.004 0.000
2048 4 2.629 2.310 15.712 0.000 -0.004 0.006 -0.000
2049 4 4.844 0.358 15.848 0.006 -0.010 0.004 -0.000
2050 4 5.267 2.710 17.831 -0.006 -0.001 -0.003 0.000
2051 4 6.645 0.927 17.566 0.002 0.003 -0.010 -0.000
2052 4 6.848 2.689 15.746 0.003 -0.002 0.001 -0.000
2053 4 8.597 0.940 15.701 -0.001 -0.005 0.002 0.000
2054 4 8.430 2.692 18.083 0.004 -0.000 0.002 0.000
2055 4 10.100 1.310 17.778 -0.006 0.001 0.003 0.000
2056 4 10.634 2.968 15.754 -0.001 0.005 0.000 0.000
2057 4 12.306 1.032 16.106 -0.003 -0.018 0.003 -0.000
2058 4 12.626 3.106 17.937 -0.004 -0.007 -0.010 0.000
2059 4 14.240 0.901 17.897 0.003 0.005 -0.009 -0.000
2060 4 14.034 2.634 15.856 -0.002 0.005 0.002 -0.000
2083 4 -0.858 4.561 17.689 -0.014 0.008 -0.005 0.000
2084 4 -1.192 6.761 16.281 0.003 -0.009 0.006 0.000
2085 4 1.209 4.631 16.071 0.000 0.010 -0.004 -0.000
2086 4 1.073 6.671 17.549 -0.009 0.002 0.000 -0.000
2087 4 2.951 4.489 17.805 0.006 -0.004 0.003 -0.000
2088 4 2.878 6.470 15.144 -0.008 0.006 -0.005 -0.000
2089 4 4.558 4.526 15.754 -0.006 -0.001 0.003 -0.000
2090 4 4.621 6.390 17.289 -0.016 -0.001 0.002 -0.000
2091 4 6.593 4.498 17.407 0.013 -0.014 0.002 0.000
2092 4 6.567 6.800 15.586 -0.000 -0.002 0.008 0.000
2093 4 8.784 4.399 15.999 0.010 0.007 -0.005 0.000
2094 4 8.315 6.469 17.360 0.006 0.001 0.012 0.000
2095 4 10.606 4.582 18.003 -0.003 0.000 -0.001 0.000
2096 4 10.613 6.288 16.188 -0.001 -0.007 0.002 0.000
2097 4 12.313 4.342 15.789 -0.001 0.010 -0.010 0.000
2098 4 12.466 6.515 18.152 0.006 -0.004 -0.002 -0.000
2099 4 14.520 4.639 17.945 -0.003 0.016 -0.002 -0.000
2100 4 14.450 6.744 16.427 -0.010 0.006 0.002 -0.000
2123 4 -0.852 8.683 18.613 0.003 -0.001 -0.009 -0.000
2124 4 -1.231 10.042 16.447 -0.005 0.002 -0.007 0.000
2125 4 0.926 8.305 15.902 0.010 -0.009 -0.001 0.000
2126 4 0.917 9.985 17.838 -0.011 0.001 -0.012 -0.000
2127 4 3.089 8.504 17.946 0.002 -0.005 0.001 -0.000
2128 4 3.105 10.084 16.038 0.008 -0.000 0.002 0.000
2129 4 4.818 8.166 15.620 -0.006 0.012 -0.002 0.000
2130 4 4.946 10.498 17.664 -0.006 -0.008 0.001 -0.000
2131 4 6.689 8.371 17.536 0.004 -0.004 0.013 -0.000
2132 4 6.434 10.547 15.931 0.003 -0.000 -0.007 -0.000
2133 4 8.479 8.535 15.966 -0.006 -0.006 0.006 0.000
2134 4 8.694 10.286 17.875 -0.003 0.007 -0.002 -0.000
2135 4 10.543 8.664 17.761 -0.004 -0.004 0.000 -0.000
2136 4 10.461 10.424 15.884 -0.001 0.000 0.003 0.000
2137 4 12.822 8.354 16.160 -0.000 -0.005 -0.008 -0.000
2138 4 12.701 10.325 18.135 -0.003 -0.000 -0.008 -0.000
2139 4 14.551 8.487 18.062 0.001 0.003 0.000 -0.000
2140 4 14.556 10.481 16.155 -0.004 -0.003 0.003 -0.000
2163 4 -1.116 11.775 18.186 -0.001 0.004 -0.000 -0.000
2164 4 -1.324 14.279 16.352 -0.006 0.002 0.006 -0.000
2165 4 0.222 12.228 16.061 -0.002 0.001 -0.001 -0.000
2166 4 0.691 13.915 17.617 0.001 0.003 -0.004 -0.000
2167 4 2.377 12.111 17.828 0.001 -0.002 0.002 -0.000
2168 4 2.461 13.874 16.127 -0.008 -0.002 -0.001 -0.000
2169 4 4.621 12.486 15.938 0.004 -0.005 -0.004 -0.000
2170 4 4.871 14.754 18.347 0.001 -0.002 -0.012 -0.000
2171 4 7.071 11.997 18.031 -0.005 0.006 -0.007 -0.000
2172 4 6.779 14.156 16.115 0.002 -0.014 0.004 -0.000
2173 4 8.501 12.144 15.998 0.007 0.003 -0.002 0.000
2174 4 8.402 13.839 17.793 0.016 0.002 -0.004 0.000
2175 4 10.528 12.260 17.784 0.005 -0.002 -0.004 -0.000
2176 4 10.228 13.965 16.042 0.003 -0.000 0.001 0.000
2177 4 12.708 12.275 16.289 -0.009 -0.004 -0.007 -0.000
2178 4 12.314 14.327 17.693 0.001 0.013 0.004 -0.000
2179 4 14.246 12.523 18.238 0.004 -0.013 0.000 -0.000
2180 4 14.206 13.843 16.035 0.004 0.007 0.002 -0.000
2404 4 -1.122 -1.287 20.315 0.007 -0.001 0.001 0.000
2408 4 2.802 -0.893 19.684 0.010 0.014 0.003 -0.000
2412 4 6.712 -0.933 20.104 -0.011 -0.004 0.013 -0.000
2416 4 10.403 -1.103 19.947 -0.009 -0.009 -0.001 0.000
2420 4 13.654 -1.044 19.709 0.004 0.009 -0.007 -0.000
2444 4 -0.825 2.995 19.713 0.004 -0.011 -0.000 -0.000
2445 4 0.700 0.572 19.668 -0.001 0.006 0.004 0.000
2448 4 3.133 2.802 19.530 0.002 0.004 0.008 0.000
2449 4 5.085 0.927 19.883 0.006 0.009 -0.002 0.000
2452 4 6.706 2.576 19.934 -0.005 -0.001 -0.007 0.000
2453 4 8.351 0.697 19.968 -0.001 -0.003 0.003 0.000
2456 4 10.736 2.880 19.795 -0.001 0.001 -0.004 0.000
2457 4 11.959 0.812 19.795 0.002 -0.008 0.001 0.000
2460 4 14.470 2.507 19.471 0.005 0.007 0.004 -0.000
2484 4 -0.883 6.254 19.585 0.001 -0.000 -0.002 -0.000
2485 4 1.297 4.819 19.378 -0.007 0.000 -0.001 -0.000
2488 4 3.231 6.332 19.384 0.003 -0.003 0.006 0.000
2489 4 5.138 4.210 19.750 0.008 0.005 0.002 0.000
2492 4 6.451 6.330 19.399 -0.004 -0.000 -0.002 -0.000
2493 4 8.597 5.017 19.532 0.004 0.002 -0.003 0.000
2496 4 10.390 6.727 19.800 -0.005 -0.005 -0.002 -0.000
2497 4 12.542 4.984 19.875 0.006 0.004 0.007 -0.000
2500 4 14.434 6.650 19.997 -0.002 0.003 -0.008 -0.000
2524 4 -1.354 10.588 20.259 -0.004 0.005 0.015 0.000
2525 4 1.079 8.094 19.526 -0.002 0.006 0.005 -0.000
2528 4 2.998 10.494 19.587 0.006 0.018 0.006 -0.000
2529 4 4.801 8.341 19.728 0.003 0.000 0.006 -0.000
2532 4 6.465 10.193 19.657 0.016 0.010 -0.001 -0.000
2533 4 8.700 7.985 19.629 -0.003 -0.003 0.001 -0.000
2536 4 10.173 10.386 19.601 0.001 0.004 -0.006 -0.000
2537 4 12.245 8.602 19.777 -0.001 -0.005 0.000 -0.000
2540 4 14.127 10.715 20.414 -0.008 0.001 0.000 -0.000
2564 4 -0.855 14.284 19.366 -0.014 0.006 0.001 -0.000
2565 4 0.809 12.024 19.843 0.008 0.000 -0.001 -0.000
2568 4 2.621 13.874 19.774 0.007 -0.001 -0.007 -0.000
2569 4 4.873 12.540 19.633 0.008 0.003 0.006 -0.000
2572 4 7.103 14.145 20.058 0.005 0.002 -0.007 0.000
2573 4 8.921 12.083 19.940 -0.003 -0.008 0.002 0.000
2576 4 10.372 14.339 20.073 -0.004 0.005 0.004 0.000
2577 4 12.132 12.325 19.906 0.004 0.009 0.008 0.000
2580 4 13.786 14.208 20.197 0.006 -0.002 -0.002 0.000
2575 4 10.344 12.070 21.888 0.006 0.011 0.001 0.000
2579 4 14.285 12.195 21.955 -0.002 -0.003 -0.005 -0.000
2451 4 6.533 1.044 21.849 0.000 0.005 -0.004 0.000
2450 4 4.539 2.646 21.656 -0.006 -0.014 0.011 0.000
2574 4 8.438 14.103 21.878 -0.010 -0.000 0.004 0.000
2578 4 12.401 13.983 21.997 0.005 0.001 0.006 -0.000
2530 4 4.758 10.350 21.560 -0.003 0.003 -0.000 -0.000
2459 4 14.174 0.801 21.636 0.014 0.004 -0.012 -0.000
2498 4 12.311 6.820 21.961 -0.009 0.010 -0.002 -0.000
2571 4 7.072 12.062 21.784 -0.004 0.002 -0.012 0.000
2567 4 2.974 12.181 21.481 -0.005 0.003 0.000 -0.000
2486 4 0.687 6.453 21.492 0.009 -0.009 -0.006 0.000
2490 4 4.576 6.629 21.523 -0.009 0.003 -0.008 0.000
2443 4 -1.443 0.862 21.852 0.002 0.005 -0.002 0.000
2523 4 -0.904 8.354 21.417 0.004 -0.007 0.000 -0.000
2566 4 1.062 13.836 21.577 -0.004 0.012 -0.004 -0.000
2538 4 12.278 10.445 22.073 -0.010 0.002 0.002 -0.000
2455 4 10.621 1.184 22.330 0.002 0.006 -0.005 -0.000
2491 4 6.902 4.586 21.760 0.008 -0.001 -0.005 0.000
2494 4 8.378 6.651 21.619 0.002 -0.006 0.003 0.000
2563 4 -1.364 12.693 21.772 -0.000 0.007 0.014 -0.000
2454 4 8.751 2.543 21.632 0.011 -0.001 -0.005 0.000
2499 4 14.563 4.114 21.708 -0.011 -0.005 -0.000 -0.000
2458 4 12.538 3.166 21.721 -0.000 0.001 -0.006 -0.000
2406 4 0.690 -0.696 21.622 0.003 -0.010 0.005 0.000
2410 4 4.626 -1.017 21.733 -0.004 0.003 -0.007 -0.000
2526 4 0.780 10.370 21.632 -0.003 0.001 -0.005 -0.000
2446 4 0.966 2.393 21.547 0.005 -0.001 -0.004 0.000
2483 4 -0.865 4.614 21.727 0.002 -0.003 0.006 -0.000
2527 4 2.875 8.709 21.615 0.005 -0.010 -0.013 -0.000
2570 4 4.981 14.165 21.817 0.006 0.008 0.000 0.000
2534 4 8.213 9.859 21.645 -0.001 -0.006 0.005 -0.000
2539 4 14.171 8.662 21.969 -0.008 0.003 0.007 0.000
2535 4 10.111 8.359 22.008 -0.008 0.002 -0.003 -0.000
2531 4 6.457 8.168 21.840 -0.006 0.014 0.002 -0.000
2447 4 2.729 0.621 21.316 0.010 0.005 0.002 0.000
2414 4 8.816 -1.033 22.046 0.005 0.001 -0.008 -0.000
2418 4 12.110 -0.809 21.795 0.006 -0.009 -0.001 -0.000
2495 4 10.454 4.828 22.009 0.004 -0.005 0.007 -0.000
1007 4 3.269 16.104 6.255 0.003 0.010 0.005 -0.000
2601 4 -2.920 15.857 20.028 -0.009 0.002 0.010 0.000
1722 4 -2.863 10.414 14.557 -0.009 -0.001 -0.002 0.000
4 4 -1.229 -1.466 -2.869 -0.001 -0.004 0.001 -0.000
1411 4 6.471 15.517 10.311 0.005 0.004 0.014 0.000
1815 4 10.079 15.925 14.452 -0.000 0.006 -0.001 0.000
2561 4 -2.924 12.494 19.701 -0.003 -0.001 0.001 -0.000
2607 4 2.769 15.824 21.463 -0.002 0.005 -0.013 0.000
1003 4 -0.988 15.864 6.677 0.004 -0.001 -0.004 -0.000
211 4 6.948 15.794 -1.125 0.002 -0.005 -0.007 0.000
2017 4 12.687 -2.806 16.670 0.011 0.001 -0.001 -0.000
1011 4 6.527 15.995 6.738 0.002 0.001 -0.004 -0.000
1409 4 4.567 15.995 8.782 0.006 0.003 -0.002 0.000
172 4 6.638 14.020 -3.155 0.001 0.004 -0.014 -0.000
1761 4 -2.959 12.439 12.161 -0.011 0.003 -0.003 0.000
2522 4 -2.947 10.373 21.833 0.001 -0.002 -0.005 0.000
2013 4 8.436 -2.979 15.741 0.004 -0.002 -0.008 0.000
2481 4 -2.883 4.735 20.325 0.002 -0.009 0.014 -0.000
2005 4 0.694 -2.839 16.124 0.003 -0.007 0.003 -0.000
49 4 4.953 0.753 -2.702 0.002 -0.008 -0.017 -0.000
53 4 8.345 0.794 -2.732 0.005 -0.001 -0.006 0.000
922 4 -2.887 10.255 6.807 -0.003 0.001 0.001 0.000
1322 4 -2.743 9.730 10.332 0.012 0.004 0.007 -0.000
2215 4 9.885 15.845 17.832 -0.013 0.003 -0.003 0.000
1817 4 12.136 15.727 12.338 -0.005 0.001 -0.001 -0.000
2015 4 10.415 -2.841 18.000 0.009 -0.007 0.000 -0.000
2487 4 2.865 4.420 21.307 0.001 -0.003 -0.003 0.000
1321 4 -2.537 7.901 8.528 -0.011 -0.006 -0.005 -0.000
2613 4 8.499 16.237 19.864 0.008 0.010 0.004 0.000
2405 4 0.878 -3.032 20.103 -0.000 0.001 -0.005 0.000
1603 4 -1.277 -2.613 14.422 0.000 0.001 -0.005 -0.000
603 4 -1.179 15.947 2.986 -0.012 0.002 0.004 -0.000
1005 4 0.817 15.909 4.693 0.000 -0.002 -0.005 -0.000
2409 4 4.918 -2.987 19.789 -0.014 0.004 0.004 -0.000
607 4 2.974 15.855 2.741 -0.000 -0.010 0.006 -0.000
1813 4 8.413 15.743 12.083 0.003 0.012 -0.009 0.000
601 4 -3.108 15.914 1.170 -0.005 0.000 0.004 -0.000
207 4 2.970 15.923 -1.249 0.008 -0.003 -0.013 -0.000
136 4 10.731 10.015 -2.949 -0.000 -0.006 -0.001 -0.000
2562 4 -3.026 14.197 21.772 -0.010 0.005 -0.001 0.000
1407 4 2.746 15.867 10.009 -0.003 -0.000 -0.004 -0.000
219 4 14.181 15.633 -1.134 0.005 0.008 0.002 0.000
609 4 5.038 15.698 0.325 0.002 -0.008 -0.004 -0.000
2415 4 10.712 -2.976 21.428 0.001 -0.002 -0.001 0.000
1205 4 0.635 -3.023 8.585 0.018 -0.001 -0.001 0.000
133 4 8.841 8.431 -2.619 -0.011 0.000 -0.006 0.000