ITEM: TIMESTEP
17000
ITEM: NUMBER OF ATOMS
32000
ITEM: BOX BOUNDS pp pp pp
-3.012906 73.492906
-2.920719 73.400719
-3.120460 73.600460
ITEM: ATOMS id type x y z vx vy vz q
6 4 0.581 -0.923 -1.112 0.001 -0.005 0.003 0.000
10 4 4.637 -1.092 -1.480 0.008 -0.003 0.003 0.000
14 4 8.493 -1.199 -1.294 -0.005 -0.001 -0.007 -0.000
18 4 12.311 -1.212 -1.251 -0.004 -0.010 -0.019 -0.000
43 4 -1.368 0.866 -1.523 0.005 -0.011 0.000 0.000
46 4 0.605 2.807 -1.549 0.009 -0.004 -0.007 -0.000
47 4 2.341 0.866 -1.348 0.000 -0.002 0.001 0.000
50 4 4.548 3.182 -1.604 0.002 0.008 0.000 -0.000
51 4 6.368 0.981 -1.433 -0.004 -0.008 0.002 -0.000
54 4 8.527 2.622 -1.185 0.007 0.011 -0.003 -0.000
55 4 10.450 0.578 -1.300 0.003 -0.002 0.012 0.000
58 4 12.547 2.585 -1.228 0.002 0.001 -0.001 0.000
59 4 14.490 0.774 -1.482 0.007 0.002 0.008 0.000
83 4 -1.071 5.248 -1.255 0.011 -0.000 0.003 -0.000
86 4 0.557 7.083 -1.518 -0.005 0.008 0.001 -0.000
87 4 2.557 4.830 -1.433 0.010 -0.002 0.001 0.000
90 4 4.624 6.687 -1.739 0.005 0.001 -0.000 -0.000
91 4 6.394 4.958 -1.237 -0.002 -0.002 -0.004 -0.000
94 4 8.145 6.620 -1.303 0.010 0.000 -0.002 0.000
95 4 10.482 4.769 -1.050 -0.009 -0.006 0.004 -0.000
98 4 12.411 6.409 -1.222 0.001 0.004 0.005 0.000
99 4 14.466 4.568 -1.213 -0.005 -0.008 0.010 0.000
123 4 -1.529 8.567 -1.634 -0.004 0.008 -0.000 -0.000
126 4 0.824 10.714 -1.603 0.003 0.003 0.006 0.000
127 4 2.837 8.641 -1.542 -0.008 0.006 0.005 0.000
130 4 4.381 10.631 -1.443 -0.008 -0.001 0.006 0.000
131 4 6.589 8.970 -1.109 0.009 0.006 -0.006 -0.000
134 4 8.890 10.654 -1.173 -0.002 0.007 -0.005 0.000
135 4 10.019 8.237 -1.099 -0.009 0.001 0.003 -0.000
138 4 12.879 10.243 -1.089 -0.010 -0.003 -0.005 0.000
139 4 14.422 8.302 -1.255 0.003 -0.004 -0.010 -0.000
163 4 -1.375 12.126 -1.548 -0.005 0.006 -0.004 0.000
166 4 0.473 14.191 -1.453 0.004 -0.011 0.001 -0.000
167 4 2.793 12.385 -1.180 0.006 -0.010 -0.009 0.000
170 4 4.659 14.460 -1.062 0.000 0.006 -0.009 -0.000
171 4 6.651 12.454 -1.025 0.002 -0.006 0.004 0.000
174 4 9.087 14.653 -0.640 0.001 0.007 0.003 0.000
175 4 10.309 12.504 -1.070 0.003 -0.011 -0.001 -0.000
178 4 12.305 14.162 -1.791 0.009 -0.003 -0.004 0.000
179 4 14.320 12.382 -1.328 -0.005 -0.002 0.002 0.000
404 4 -1.160 -0.626 0.664 -0.001 0.001 0.005 -0.000
406 4 0.458 -0.999 2.563 0.002 0.001 -0.004 -0.000
408 4 2.320 -1.145 1.027 0.002 -0.000 -0.001 0.000
410 4 4.781 -0.573 2.843 0.006 0.004 -0.003 -0.000
412 4 6.340 -1.176 0.510 -0.011 -0.001 -0.001 -0.000
414 4 8.292 -0.645 2.437 0.001 0.007 0.004 0.000
416 4 10.432 -0.926 0.517 0.000 -0.005 0.002 0.000
418 4 12.231 -1.221 3.021 -0.002 0.003 0.001 0.000
420 4 14.444 -1.051 0.876 -0.005 0.009 -0.003 0.000
443 4 -1.039 1.324 2.325 -0.004 0.009 0.003 0.000
444 4 -1.151 2.936 0.333 -0.009 -0.001 -0.005 0.000
445 4 0.600 0.878 0.532 0.008 0.007 0.006 0.000
446 4 1.320 3.032 2.338 -0.005 0.009 0.003 0.000
447 4 2.729 0.918 2.363 0.013 0.002 -0.001 -0.000
448 4 2.785 2.633 0.381 0.001 0.005 0.004 0.000
449 4 4.747 0.858 0.525 0.002 -0.007 0.006 0.000
450 4 4.225 2.915 2.487 -0.002 -0.007 -0.006 -0.000
451 4 6.608 1.033 2.271 -0.002 -0.001 0.005 0.000
452 4 6.193 2.913 0.228 -0.000 -0.012 -0.004 0.000
453 4 8.357 0.888 0.401 0.007 -0.008 -0.008 -0.000
454 4 8.529 2.402 2.713 -0.003 0.004 -0.003 -0.000
455 4 10.484 0.652 2.696 0.011 0.003 0.007 -0.000
456 4 10.215 2.383 0.664 -0.005 0.003 0.009 -0.000
457 4 12.302 0.965 0.269 0.003 0.008 -0.006 0.000
458 4 12.132 2.502 2.488 -0.004 0.005 -0.009 -0.000
459 4 13.981 0.606 2.710 -0.003 -0.006 0.003 0.000
460 4 14.682 2.347 0.844 -0.006 0.012 -0.011 -0.000
483 4 -1.046 4.554 2.097 -0.010 -0.004 0.016 0.000
484 4 -1.181 6.923 0.675 0.007 0.010 -0.009 0.000
485 4 0.957 4.823 0.673 -0.001 0.004 0.008 -0.000
486 4 0.386 6.762 2.663 0.001 0.004 -0.008 -0.000
487 4 2.955 4.880 2.681 -0.009 0.001 0.005 0.000
488 4 2.751 6.705 0.325 0.012 -0.009 -0.003 -0.000
489 4 4.369 4.441 0.357 -0.005 -0.007 -0.004 -0.000
490 4 4.391 6.875 2.088 -0.010 0.001 0.006 -0.000
491 4 6.434 4.776 1.824 0.001 0.004 -0.001 -0.000
492 4 6.113 6.702 0.375 0.003 -0.004 -0.001 0.000
493 4 8.592 4.899 0.468 -0.006 0.000 0.004 -0.000
494 4 8.161 6.587 2.461 -0.008 -0.007 0.005 -0.000
495 4 10.292 4.702 2.183 -0.007 0.002 -0.016 0.000
496 4 10.268 6.509 0.711 -0.005 -0.003 0.007 0.000
497 4 12.419 4.102 0.727 -0.004 0.001 0.003 -0.000
498 4 12.774 6.524 2.652 0.002 0.003 -0.001 -0.000
499 4 14.109 4.254 2.824 0.003 0.003 0.009 0.000
500 4 14.774 6.432 0.671 -0.006 0.002 -0.001 -0.000
523 4 -1.147 8.763 2.710 0.010 -0.000 -0.009 -0.000
524 4 -1.284 10.130 0.831 0.005 -0.002 -0.013 -0.000
525 4 1.093 8.928 0.219 -0.009 -0.006 -0.001 0.000
526 4 0.565 10.460 2.304 0.008 -0.001 0.003 0.000
527 4 2.390 8.581 2.373 -0.003 -0.001 -0.001 -0.000
528 4 2.691 10.565 0.691 -0.005 -0.003 -0.002 -0.000
529 4 4.341 8.729 0.369 0.000 0.002 0.006 0.000
530 4 4.709 10.229 2.272 -0.018 0.007 0.007 -0.000
531 4 6.578 8.564 2.544 -0.007 -0.002 -0.003 0.000
532 4 6.037 10.667 0.578 -0.014 0.006 -0.001 -0.000
533 4 8.318 8.273 0.613 -0.002 -0.002 -0.009 0.000
534 4 8.252 10.409 2.590 0.003 0.001 -0.006 -0.000
535 4 10.972 8.122 2.421 0.001 0.010 -0.005 -0.000
536 4 10.513 10.512 0.637 0.006 -0.002 0.002 -0.000
537 4 12.897 8.059 0.786 0.006 0.005 0.002 0.000
538 4 12.338 10.348 2.541 -0.002 0.011 -0.008 -0.000
539 4 14.181 8.747 3.038 -0.006 -0.002 0.004 0.000
540 4 14.351 10.607 0.946 -0.004 -0.003 0.009 -0.000
563 4 -1.082 12.447 2.426 -0.001 -0.004 -0.005 -0.000
564 4 -1.267 13.546 0.467 0.004 -0.001 -0.003 0.000
565 4 0.742 12.026 0.467 -0.001 -0.000 0.010 -0.000
566 4 0.820 13.991 2.613 -0.000 0.003 0.004 0.000
567 4 2.748 12.189 2.628 0.000 0.002 -0.007 -0.000
568 4 2.691 14.249 0.755 -0.003 0.003 0.002 -0.000
569 4 4.577 12.598 0.565 -0.011 -0.007 -0.011 0.000
570 4 4.212 14.485 2.291 -0.001 -0.009 0.001 -0.000
571 4 6.511 12.611 2.232 -0.005 0.005 -0.002 -0.000
572 4 6.781 14.245 0.600 0.000 -0.004 -0.004 0.000
573 4 8.774 12.444 1.063 -0.005 0.009 0.004 0.000
574 4 8.755 14.310 2.496 -0.001 0.002 -0.004 0.000
575 4 10.753 12.498 2.508 -0.008 -0.014 0.001 0.000
576 4 11.187 14.505 0.741 0.005 0.004 0.001 -0.000
577 4 12.875 12.560 0.457 0.008 -0.011 0.007 0.000
578 4 12.738 14.805 3.107 0.007 0.005 0.005 -0.000
579 4 13.666 12.330 2.837 0.006 0.006 -0.000 0.000
580 4 14.191 14.449 0.315 0.002 0.004 0.000 0.000
804 4 -1.029 -0.901 4.440 0.002 0.001 -0.001 -0.000
806 4 0.690 -1.033 6.384 -0.007 0.004 0.001 -0.000
808 4 2.720 -0.909 4.568 0.006 -0.003 -0.005 0.000
810 4 4.324 -1.038 6.361 0.006 0.003 -0.006 -0.000
812 4 6.387 -0.824 4.906 0.008 -0.008 -0.010 0.000
814 4 8.314 -0.954 6.695 -0.002 -0.007 0.002 0.000
816 4 10.294 -0.901 4.866 0.002 0.012 -0.011 -0.000
818 4 11.983 -1.364 6.843 0.006 0.002 0.005 0.000
820 4 14.048 -1.112 4.661 -0.002 -0.003 0.010 0.000
843 4 -1.114 1.077 6.349 0.005 0.007 -0.008 0.000
844 4 -0.832 2.783 4.205 -0.003 0.008 -0.003 -0.000
845 4 0.975 1.144 4.242 0.002 0.005 -0.003 0.000
846 4 0.727 2.922 6.397 0.012 0.007 0.011 0.000
847 4 2.334 0.902 6.296 0.009 -0.002 -0.004 -0.000
848 4 2.687 3.073 4.666 -0.006 0.004 -0.004 0.000
849 4 4.088 1.216 4.607 0.004 -0.007 0.002 -0.000
850 4 4.124 3.045 6.448 -0.009 0.002 0.002 -0.000
851 4 6.387 1.536 6.792 0.005 -0.010 -0.002 0.000
852 4 6.547 2.254 4.557 0.003 -0.004 -0.000 -0.000
853 4 8.642 0.912 4.536 -0.002 -0.002 -0.002 0.000
854 4 8.750 3.255 6.116 0.005 -0.001 -0.009 -0.000
855 4 10.034 0.944 6.781 -0.001 -0.002 -0.001 -0.000
856 4 10.578 2.862 4.152 0.005 -0.004 -0.004 -0.000
857 4 12.140 0.453 4.904 0.002 -0.001 0.004 -0.000
858 4 11.949 2.826 6.582 -0.010 0.013 0.007 0.000
859 4 13.911 0.578 6.779 0.003 0.004 -0.001 -0.000
860 4 13.895 2.447 4.963 -0.004 0.003 -0.001 0.000
883 4 -1.436 4.512 6.088 -0.007 0.004 0.005 0.000
884 4 -1.370 7.164 4.491 0.010 -0.008 -0.009 0.000
885 4 0.854 4.751 4.329 -0.005 -0.000 0.000 0.000
886 4 0.797 6.728 6.240 0.003 -0.005 -0.003 0.000
887 4 2.779 5.021 6.343 -0.011 0.004 -0.001 -0.000
888 4 2.471 6.705 4.230 0.001 0.009 0.008 -0.000
889 4 4.842 4.449 4.786 -0.009 -0.000 -0.000 -0.000
890 4 4.321 6.792 6.687 -0.013 0.004 0.006 0.000
891 4 6.441 4.316 6.573 0.005 0.009 0.013 0.000
892 4 6.290 6.658 4.023 -0.003 0.006 0.004 0.000
893 4 7.881 4.620 4.031 0.010 -0.001 0.001 -0.000
894 4 8.557 5.799 6.315 -0.009 0.008 0.004 0.000
895 4 10.622 4.799 6.591 0.002 -0.012 -0.001 0.000
896 4 10.021 5.975 4.350 -0.001 -0.002 0.000 -0.000
897 4 12.465 4.823 4.471 -0.005 0.002 0.002 -0.000
898 4 12.044 6.779 6.512 -0.007 -0.000 -0.003 -0.000
899 4 13.901 4.929 6.523 -0.010 -0.002 0.001 0.000
900 4 14.606 6.830 4.743 -0.000 0.002 0.009 -0.000
923 4 -0.769 8.832 6.587 0.001 -0.012 -0.005 -0.000
924 4 -1.016 10.824 4.248 0.012 -0.007 -0.009 -0.000
925 4 0.577 8.801 4.370 0.005 0.005 0.003 -0.000
926 4 1.098 10.332 6.321 -0.000 -0.009 -0.007 -0.000
927 4 2.646 8.403 6.224 -0.007 -0.003 -0.011 0.000
928 4 2.356 10.306 4.187 -0.005 0.002 -0.001 0.000
929 4 4.620 8.551 4.383 0.013 0.010 0.001 -0.000
930 4 4.860 10.542 6.445 0.011 -0.012 -0.000 -0.000
931 4 6.252 8.288 6.246 -0.004 0.007 -0.021 -0.000
932 4 6.151 10.542 4.407 -0.007 -0.007 0.007 0.000
933 4 8.131 8.367 4.798 -0.000 -0.005 0.004 -0.000
934 4 8.134 10.205 6.352 -0.002 -0.007 0.001 0.000
935 4 10.337 8.326 6.159 -0.000 0.005 -0.003 -0.000
936 4 10.345 10.363 4.356 -0.015 -0.013 -0.003 0.000
937 4 12.142 9.037 4.661 0.007 0.002 -0.004 0.000
938 4 12.077 10.174 6.932 -0.001 -0.005 -0.002 -0.000
939 4 14.315 8.622 6.650 0.002 0.005 0.005 0.000
940 4 14.282 10.479 4.742 -0.003 -0.009 0.003 -0.000
963 4 -0.873 12.462 6.233 0.003 0.002 0.000 0.000
964 4 -0.769 13.894 4.368 -0.010 -0.004 0.001 0.000
965 4 1.243 12.220 4.548 -0.002 -0.007 -0.004 -0.000
966 4 0.874 14.527 6.428 0.003 -0.002 0.001 -0.000
967 4 2.607 12.408 6.781 -0.008 -0.008 -0.004 0.000
968 4 2.663 14.112 4.749 0.002 0.006 -0.007 -0.000
969 4 4.586 12.493 4.419 0.003 -0.003 0.010 0.000
970 4 4.363 14.337 6.797 -0.008 0.001 0.005 -0.000
971 4 6.291 12.475 6.207 0.011 -0.001 -0.006 0.000
972 4 6.554 14.177 3.988 0.008 -0.000 0.009 -0.000
973 4 8.529 12.135 4.612 -0.005 -0.001 -0.003 -0.000
974 4 8.472 14.431 6.674 0.000 -0.006 -0.003 0.000
975 4 10.380 12.577 6.536 0.003 -0.008 -0.008 0.000
976 4 10.499 14.682 4.618 -0.003 0.004 0.007 -0.000
977 4 12.067 12.379 4.752 0.003 -0.007 -0.001 -0.000
978 4 12.060 14.580 6.677 -0.003 -0.011 -0.006 0.000
979 4 13.951 12.370 6.549 -0.014 0.003 0.004 -0.000
980 4 14.213 14.108 4.702 0.000 0.002 -0.005 0.000
1204 4 -0.740 -0.886 8.493 0.005 0.006 -0.001 0.000
1206 4 0.868 -1.313 10.469 -0.003 0.010 -0.007 0.000
1208 4 2.631 -1.293 8.371 0.012 0.012 -0.011 -0.000
1210 4 4.932 -1.252 10.263 -0.000 -0.002 -0.009 -0.000
1212 4 6.060 -0.578 8.160 -0.013 0.000 -0.004 -0.000
1214 4 8.053 -0.738 9.705 -0.006 -0.005 -0.003 -0.000
1216 4 10.336 -0.971 8.679 -0.000 0.000 0.002 -0.000
1218 4 12.314 -0.871 9.951 0.008 0.001 -0.011 0.000
1220 4 14.205 -1.243 8.410 0.005 -0.008 -0.005 0.000
1243 4 -1.059 1.062 10.598 0.003 -0.001 0.006 -0.000
1244 4 -1.193 2.806 8.342 -0.009 0.004 0.010 0.000
1245 4 1.117 0.812 8.279 -0.000 0.005 -0.008 0.000
1246 4 0.441 3.143 10.106 -0.000 -0.006 -0.010 -0.000
1247 4 2.598 0.748 10.234 0.007 -0.001 -0.001 0.000
1248 4 2.555 2.775 8.582 0.010 -0.003 -0.006 0.000
1249 4 4.253 0.776 7.932 -0.004 -0.012 -0.006 0.000
1250 4 4.398 2.660 10.289 -0.000 0.004 0.010 -0.000
1251 4 6.475 0.871 10.669 -0.004 -0.001 -0.005 0.000
1252 4 6.278 3.641 8.667 -0.005 0.002 -0.013 -0.000
1253 4 8.435 1.556 8.505 -0.001 -0.002 0.004 0.000
1254 4 8.224 3.128 10.665 0.002 -0.005 -0.004 -0.000
1255 4 10.446 1.139 10.178 0.004 -0.009 -0.002 0.000
1256 4 10.634 2.958 8.439 -0.008 -0.000 0.006 0.000
1257 4 12.032 0.993 8.280 -0.009 0.000 0.000 0.000
1258 4 12.428 2.787 10.375 0.002 0.007 0.007 -0.000
1259 4 14.163 0.940 10.133 -0.008 -0.004 -0.001 -0.000
1260 4 13.995 2.687 8.066 -0.000 0.002 0.001 0.000
1283 4 -1.080 5.066 10.494 0.005 -0.006 0.002 0.000
1284 4 -0.825 6.924 8.559 0.001 0.001 0.004 -0.000
1285 4 0.931 5.182 8.252 -0.001 -0.004 0.004 0.000
1286 4 0.822 6.698 10.608 0.008 -0.002 0.004 -0.000
1287 4 2.803 4.712 10.443 0.009 -0.007 0.001 0.000
1288 4 2.765 6.605 8.702 -0.000 0.002 0.000 0.000
1289 4 4.150 4.957 8.264 0.002 -0.004 0.002 -0.000
1290 4 4.434 6.804 10.311 -0.004 0.011 -0.007 -0.000
1291 4 6.097 5.054 10.501 -0.006 0.001 0.002 0.000
1292 4 6.431 6.445 8.573 -0.001 0.005 0.008 -0.000
1293 4 8.532 4.908 8.460 0.001 -0.002 0.006 -0.000
1294 4 8.470 6.575 10.730 0.012 -0.017 0.003 0.000
1295 4 10.544 4.825 10.263 0.010 0.008 0.006 0.000
1296 4 10.638 6.535 8.276 -0.010 -0.005 0.004 -0.000
1297 4 12.363 4.602 8.342 -0.005 0.009 -0.008 -0.000
1298 4 12.464 6.835 10.458 -0.003 0.006 -0.001 0.000
1299 4 14.293 4.674 10.067 0.003 0.008 -0.002 -0.000
1300 4 14.024 6.639 8.092 -0.005 -0.008 0.005 0.000
1323 4 -1.221 8.563 10.157 0.003 0.010 -0.006 0.000
1324 4 -0.881 10.516 8.384 -0.000 0.007 -0.006 -0.000
1325 4 0.875 8.586 8.345 0.000 -0.002 0.009 -0.000
1326 4 0.590 10.628 10.346 0.004 0.001 -0.002 0.000
1327 4 2.498 8.904 10.191 -0.007 -0.003 -0.010 -0.000
1328 4 2.719 10.406 8.139 0.003 0.004 -0.001 0.000
1329 4 4.774 8.550 8.397 0.005 -0.010 0.005 0.000
1330 4 4.698 10.277 10.324 0.002 -0.005 0.012 0.000
1331 4 6.552 8.264 10.241 0.000 -0.008 -0.010 -0.000
1332 4 6.249 10.542 8.685 -0.000 0.000 -0.005 -0.000
1333 4 8.308 8.028 8.244 0.007 0.004 0.003 0.000
1334 4 8.445 10.291 10.274 -0.002 0.001 0.002 0.000
1335 4 10.246 8.285 10.267 -0.005 0.008 0.007 -0.000
1336 4 10.035 9.986 8.365 -0.003 0.003 0.001 -0.000
1337 4 12.306 8.395 8.460 0.002 0.000 -0.011 0.000
1338 4 12.355 10.112 10.232 -0.007 0.009 0.000 -0.000
1339 4 14.743 8.438 9.808 0.005 -0.004 -0.001 0.000
1340 4 14.238 10.560 8.352 0.000 0.002 0.005 -0.000
1363 4 -1.224 12.658 9.899 -0.006 -0.004 -0.008 -0.000
1364 4 -0.961 14.331 7.948 0.005 -0.000 -0.006 0.000
1365 4 0.811 12.383 8.414 0.000 -0.000 -0.007 0.000
1366 4 0.680 14.325 10.181 -0.005 0.001 0.008 -0.000
1367 4 2.556 11.907 10.212 0.007 -0.002 0.001 -0.000
1368 4 2.731 14.478 8.414 0.000 0.004 0.008 -0.000
1369 4 4.508 12.374 8.295 -0.005 0.002 -0.000 -0.000
1370 4 4.525 14.264 9.866 -0.008 0.001 0.005 0.000
1371 4 6.768 12.451 10.634 -0.009 -0.002 -0.001 0.000
1372 4 6.297 14.384 8.342 -0.012 -0.002 0.009 0.000
1373 4 8.273 11.827 8.372 -0.005 -0.000 -0.002 0.000
1374 4 8.478 14.169 10.167 0.001 -0.003 -0.003 -0.000
1375 4 10.258 12.243 9.860 -0.002 -0.012 -0.002 0.000
1376 4 9.953 14.470 8.548 -0.011 -0.003 0.008 -0.000
1377 4 12.129 12.308 8.512 -0.002 -0.002 0.007 -0.000
1378 4 12.315 14.140 10.162 -0.006 -0.005 -0.005 -0.000
1379 4 14.363 12.246 10.128 -0.004 0.005 0.005 0.000
1380 4 14.361 14.044 8.466 -0.008 0.005 -0.001 -0.000
1604 4 -0.780 -0.506 12.116 0.002 0.004 -0.001 -0.000
1606 4 0.630 -0.549 14.281 -0.003 0.001 -0.004 -0.000
1608 4 2.702 -1.106 11.922 0.007 0.003 -0.006 -0.000
1610 4 4.666 -0.898 14.324 0.010 -0.000 0.011 0.000
1612 4 6.588 -0.997 12.181 0.003 0.007 0.011 0.000
1614 4 8.567 -0.739 13.812 0.001 -0.000 0.002 -0.000
1616 4 10.622 -1.208 12.341 -0.000 0.003 0.003 -0.000
1618 4 12.419 -1.138 13.768 0.003 0.008 0.006 0.000
1620 4 14.522 -0.999 12.151 -0.001 -0.003 0.001 -0.000
1643 4 -0.875 1.429 14.469 0.004 0.005 -0.005 0.000
1644 4 -0.583 3.004 12.307 -0.007 -0.009 -0.000 -0.000
1645 4 1.013 1.096 12.212 -0.009 0.000 -0.003 0.000
1646 4 1.010 3.094 14.271 0.007 -0.001 0.006 0.000
1647 4 2.861 0.780 14.408 -0.001 0.002 -0.000 -0.000
1648 4 2.716 2.652 12.098 -0.011 0.010 -0.002 0.000
1649 4 4.678 0.578 12.445 -0.004 0.004 0.012 -0.000
1650 4 4.228 3.029 14.159 0.001 0.006 -0.007 0.000
1651 4 6.787 1.144 14.216 -0.005 0.002 0.006 -0.000
1652 4 6.178 2.992 12.599 0.005 -0.002 -0.002 0.000
1653 4 8.362 0.884 12.286 0.007 -0.005 0.002 -0.000
1654 4 8.490 2.776 14.019 -0.005 -0.002 0.002 -0.000
1655 4 10.493 0.702 13.433 0.001 -0.004 0.002 0.000
1656 4 10.396 2.943 12.247 0.002 0.006 -0.001 0.000
1657 4 12.440 1.152 12.040 -0.006 -0.004 -0.004 0.000
1658 4 12.644 3.080 13.956 0.003 0.007 0.002 -0.000
1659 4 14.132 1.109 13.940 0.007 -0.002 -0.005 0.000
1660 4 14.346 2.924 11.734 0.003 -0.003 -0.006 0.000
1683 4 -1.096 4.460 14.405 -0.004 0.012 0.002 -0.000
1684 4 -1.293 6.555 12.069 -0.002 0.006 0.002 -0.000
1685 4 1.247 4.749 12.169 0.010 -0.001 0.002 -0.000
1686 4 0.588 6.612 14.090 -0.013 -0.004 -0.000 -0.000
1687 4 2.719 4.842 14.284 -0.007 0.004 0.000 -0.000
1688 4 2.533 6.792 12.298 0.004 -0.010 -0.008 0.000
1689 4 4.250 4.803 12.405 -0.007 0.007 -0.001 -0.000
1690 4 4.572 6.301 14.415 0.007 -0.003 -0.005 -0.000
1691 4 6.771 4.864 14.540 -0.005 0.006 -0.002 -0.000
1692 4 6.439 7.176 12.372 0.012 0.005 0.014 -0.000
1693 4 8.297 4.607 12.457 0.007 0.000 0.002 0.000
1694 4 8.537 7.374 14.224 0.007 -0.011 -0.012 -0.000
1695 4 10.598 4.587 14.093 -0.004 0.004 0.009 -0.000
1696 4 10.419 6.716 12.605 0.007 -0.001 -0.004 0.000
1697 4 12.512 4.656 12.157 -0.001 -0.011 0.004 -0.000
1698 4 12.473 6.566 13.783 0.002 -0.002 -0.002 0.000
1699 4 14.154 4.734 14.200 0.002 -0.005 -0.006 0.000
1700 4 14.488 6.407 12.066 -0.007 0.008 0.005 0.000
1723 4 -1.136 8.804 14.039 0.006 -0.008 0.003 0.000
1724 4 -1.253 10.676 12.083 -0.010 -0.011 0.006 -0.000
1725 4 0.373 8.801 12.134 0.009 -0.006 0.001 -0.000
1726 4 0.603 10.789 13.712 -0.001 -0.009 0.005 0.000
1727 4 2.323 9.023 14.041 0.001 0.009 -0.011 -0.000
1728 4 2.490 10.616 12.157 0.005 -0.010 0.001 -0.000
1729 4 4.235 8.828 12.203 0.010 -0.001 0.002 0.000
1730 4 4.719 10.896 14.111 -0.001 -0.012 0.007 0.000
1731 4 6.532 8.977 14.492 -0.005 0.003 0.014 0.000
1732 4 6.657 10.206 12.290 0.000 0.001 0.011 -0.000
1733 4 8.561 8.683 12.022 0.007 -0.008 -0.002 0.000
1734 4 8.655 10.368 14.061 -0.009 -0.005 -0.002 0.000
1735 4 10.616 8.647 14.390 0.009 0.007 -0.011 0.000
1736 4 10.825 10.543 12.054 -0.007 0.006 0.005 0.000
1737 4 12.869 8.561 12.127 0.006 -0.001 0.006 -0.000
1738 4 12.540 10.496 14.322 -0.001 -0.001 0.009 0.000
1739 4 14.038 8.567 14.193 0.008 0.002 -0.003 0.000
1740 4 14.381 10.815 12.290 -0.001 -0.015 0.006 0.000
1763 4 -1.270 12.788 13.760 0.015 0.008 0.000 -0.000
1764 4 -1.202 14.184 11.867 -0.008 0.003 -0.002 0.000
1765 4 0.686 12.676 11.761 0.002 0.010 0.001 0.000
1766 4 0.901 14.048 13.953 -0.007 -0.007 -0.002 0.000
1767 4 2.792 12.035 14.364 -0.009 -0.000 -0.003 -0.000
1768 4 2.698 13.822 12.075 0.008 0.002 0.010 -0.000
1769 4 4.590 12.409 12.060 0.002 -0.009 0.006 0.000
1770 4 4.147 14.056 14.342 0.010 0.005 0.006 0.000
1771 4 6.434 12.549 14.341 0.005 -0.004 -0.004 -0.000
1772 4 7.125 14.508 12.305 0.001 0.003 -0.003 0.000
1773 4 8.971 12.073 12.032 -0.002 0.003 0.005 -0.000
1774 4 8.664 14.493 14.127 -0.002 -0.014 0.003 -0.000
1775 4 10.614 12.220 14.113 -0.002 0.006 -0.007 -0.000
1776 4 10.281 14.515 12.202 0.006 -0.001 0.002 0.000
1777 4 12.395 12.307 12.194 -0.006 0.001 0.000 0.000
1778 4 12.422 14.390 13.946 -0.004 -0.003 -0.006 0.000
1779 4 14.243 12.318 13.987 -0.005 -0.002 -0.014 -0.000
1780 4 14.174 14.313 12.296 0.010 0.002 0.001 0.000
2004 4 -1.271 -0.881 16.177 -0.005 -0.003 0.008 0.000
2006 4 0.825 -0.717 18.088 -0.006 -0.002 -0.015 0.000
2008 4 2.804 -1.111 15.948 0.006 -0.014 -0.004 0.000
2010 4 4.537 -0.918 17.752 0.010 0.008 -0.014 -0.000
2012 4 6.703 -0.861 16.025 -0.000 -0.003 -0.004 0.000
2014 4 8.953 -0.932 17.670 0.007 0.006 -0.002 -0.000
2016 4 10.509 -0.810 15.757 0.010 0.001 -0.008 -0.000
2018 4 11.971 -0.871 17.698 0.018 0.005 0.007 0.000
2020 4 14.152 -0.886 15.712 0.011 -0.001 0.012 -0.000
2043 4 -0.913 0.996 18.050 0.010 0.010 -0.005 -0.000
2044 4 -1.137 2.775 15.987 -0.003 -0.003 -0.002 -0.000
2045 4 0.853 1.173 16.133 -0.003 -0.009 0.007 -0.000
2046 4 0.798 2.854 17.934 0.008 -0.005 0.003 0.000
2047 4 2.695 0.950 18.294 0.011 -0.006 0.001 -0.000
2048 4 2.783 2.736 16.366 0.001 -0.002 0.002 -0.000
2049 4 4.691 0.918 16.058 0.012 -0.002 0.004 0.000
2050 4 4.825 2.772 18.394 -0.013 -0.005 0.003 0.000
2051 4 6.411 0.793 18.155 0.002 -0.003 -0.001 -0.000
2052 4 6.191 2.867 16.206 -0.000 0.004 -0.004 -0.000
2053 4 8.359 1.112 15.997 0.003 0.001 0.007 0.000
2054 4 8.812 2.805 18.136 0.005 0.002 -0.008 -0.000
2055 4 10.553 0.933 17.952 -0.004 -0.005 -0.011 0.000
2056 4 10.904 3.061 15.594 0.010 0.000 0.002 0.000
2057 4 12.428 1.044 16.098 0.007 -0.009 -0.004 -0.000
2058 4 12.398 2.804 18.032 0.009 -0.006 -0.003 0.000
2059 4 14.206 0.559 17.902 0.005 -0.001 0.007 0.000
2060 4 14.064 2.650 15.822 0.005 0.009 -0.006 0.000
2083 4 -1.066 5.007 18.064 0.005 -0.001 -0.004 0.000
2084 4 -0.911 6.660 16.177 0.002 0.008 -0.001 -0.000
2085 4 0.885 4.581 16.123 0.002 -0.003 0.002 0.000
2086 4 0.964 6.723 18.183 0.002 0.003 0.002 -0.000
2087 4 3.225 5.130 17.888 -0.008 -0.005 0.005 -0.000
2088 4 2.427 6.827 15.923 0.012 0.001 -0.005 0.000
2089 4 4.585 4.527 16.123 0.002 -0.003 -0.008 0.000
2090 4 4.367 7.427 18.041 -0.006 0.006 -0.004 -0.000
2091 4 6.803 5.044 18.127 0.001 -0.002 -0.010 -0.000
2092 4 6.626 7.109 16.566 0.002 -0.011 0.003 0.000
2093 4 8.796 4.277 16.248 -0.001 0.002 -0.002 0.000
2094 4 9.013 6.321 17.605 -0.001 0.003 -0.000 0.000
2095 4 10.673 4.499 18.442 -0.005 -0.003 -0.002 -0.000
2096 4 10.675 6.492 15.723 -0.001 0.006 -0.003 -0.000
2097 4 12.603 4.925 16.428 -0.006 0.005 0.000 0.000
2098 4 12.094 6.852 17.884 -0.003 -0.009 0.005 -0.000
2099 4 14.650 4.522 17.972 -0.005 -0.001 -0.004 -0.000
2100 4 14.177 6.927 16.289 -0.000 0.007 0.005 -0.000
2123 4 -0.994 8.846 17.939 -0.009 -0.001 0.008 -0.000
2124 4 -1.506 11.119 15.677 -0.001 -0.006 -0.002 -0.000
2125 4 0.765 8.671 15.990 0.003 -0.005 0.012 0.000
2126 4 0.442 10.653 17.665 -0.003 -0.004 -0.004 0.000
2127 4 2.224 8.886 17.928 0.003 -0.016 0.001 0.000
2128 4 2.581 10.846 16.380 -0.001 0.011 0.002 -0.000
2129 4 4.134 8.887 15.588 -0.006 0.011 0.001 0.000
2130 4 4.126 10.325 18.268 -0.004 -0.003 0.003 -0.000
2131 4 6.273 9.090 18.075 0.011 -0.000 0.003 -0.000
2132 4 6.396 10.716 16.099 0.013 -0.006 -0.006 -0.000
2133 4 8.268 9.042 16.444 0.008 -0.005 -0.003 0.000
2134 4 8.464 10.516 18.005 0.014 0.003 0.005 -0.000
2135 4 10.462 8.934 17.945 -0.003 0.006 -0.001 0.000
2136 4 10.470 10.584 15.923 0.002 0.014 -0.000 -0.000
2137 4 12.177 8.410 16.052 -0.011 -0.007 0.011 0.000
2138 4 12.453 10.391 17.746 0.004 -0.004 0.003 0.000
2139 4 14.186 8.880 17.934 0.006 -0.005 0.008 -0.000
2140 4 14.543 10.360 15.908 -0.003 -0.000 -0.004 0.000
2163 4 -1.323 12.313 17.854 0.000 0.002 -0.010 0.000
2164 4 -1.664 14.059 16.330 0.005 0.001 -0.012 0.000
2165 4 0.471 12.385 15.750 -0.005 -0.001 -0.002 -0.000
2166 4 0.420 14.401 18.016 0.009 -0.006 -0.003 -0.000
2167 4 2.308 12.230 17.999 0.001 0.007 -0.001 0.000
2168 4 2.538 14.329 16.175 -0.001 -0.006 -0.000 0.000
2169 4 4.278 12.295 16.185 -0.006 0.005 -0.007 -0.000
2170 4 4.490 14.114 18.055 -0.009 -0.002 0.003 -0.000
2171 4 6.572 12.096 18.005 -0.007 0.002 -0.002 0.000
2172 4 6.742 14.014 15.834 0.003 0.004 0.001 0.000
2173 4 8.546 12.378 15.613 -0.012 0.009 0.002 0.000
2174 4 8.589 14.013 17.714 -0.006 -0.001 0.005 -0.000
2175 4 10.692 12.104 17.709 0.001 0.006 0.008 0.000
2176 4 10.290 14.144 15.840 -0.005 -0.002 -0.006 -0.000
2177 4 12.655 12.335 15.883 -0.007 -0.003 -0.002 -0.000
2178 4 12.556 14.112 17.947 0.020 0.005 -0.008 0.000
2179 4 14.137 12.112 18.112 -0.015 0.001 0.001 -0.000
2180 4 14.346 14.159 15.760 0.006 -0.002 -0.003 -0.000
2404 4 -1.158 -0.827 20.223 0.001 -0.009 0.006 0.000
2408 4 2.883 -0.902 20.036 0.003 0.006 -0.005 -0.000
2412 4 6.063 -0.934 19.705 -0.004 0.007 -0.006 0.000
2416 4 10.283 -1.359 19.959 -0.001 0.003 0.001 0.000
2420 4 14.043 -1.144 19.962 0.001 -0.008 0.003 0.000
2444 4 -1.038 3.108 19.770 0.008 -0.004 0.010 -0.000
2445 4 0.952 0.982 20.161 0.004 0.002 0.006 -0.000
2448 4 2.875 3.069 20.087 0.004 0.000 -0.005 0.000
2449 4 4.679 1.097 19.921 0.003 0.001 0.001 -0.000
2452 4 6.896 3.104 20.142 -0.006 -0.001 -0.003 0.000
2453 4 8.528 0.957 19.780 -0.007 0.011 0.003 -0.000
2456 4 10.664 2.905 20.147 0.002 -0.006 -0.001 0.000
2457 4 12.413 0.706 19.942 0.011 0.007 0.000 -0.000
2460 4 14.171 2.311 19.857 -0.011 0.009 -0.004 -0.000
2484 4 -0.686 6.998 19.655 -0.002 -0.002 -0.014 0.000
2485 4 1.072 4.666 19.717 0.003 -0.000 -0.002 -0.000
2488 4 2.535 6.799 19.884 -0.002 0.008 0.001 0.000
2489 4 5.017 4.781 19.895 -0.002 0.005 0.004 -0.000
2492 4 6.294 7.120 19.819 -0.003 -0.003 -0.001 0.000
2493 4 8.822 4.726 20.280 -0.000 0.003 -0.005 -0.000
2496 4 10.392 6.709 19.853 -0.007 0.006 -0.002 0.000
2497 4 12.971 4.843 20.151 0.006 -0.007 0.005 0.000
2500 4 14.056 6.657 19.589 0.014 -0.000 0.002 0.000
2524 4 -1.498 10.284 19.876 -0.003 0.001 0.002 0.000
2525 4 0.786 8.860 20.063 -0.001 -0.005 -0.008 0.000
2528 4 2.537 10.838 20.061 0.008 -0.001 -0.003 0.000
2529 4 4.611 8.522 20.362 -0.004 0.004 0.008 0.000
2532 4 6.518 10.379 20.024 0.012 0.013 -0.009 -0.000
2533 4 8.564 8.430 19.466 -0.006 0.000 -0.008 -0.000
2536 4 10.250 10.641 19.888 0.007 -0.005 -0.000 -0.000
2537 4 12.686 8.973 20.058 -0.011 -0.001 -0.007 0.000
2540 4 14.386 10.386 20.001 -0.005 -0.004 -0.003 0.000
2564 4 -1.132 14.410 20.127 0.004 -0.001 0.008 0.000
2565 4 0.553 12.410 19.784 -0.009 0.004 -0.006 -0.000
2568 4 2.433 14.142 19.535 -0.004 0.015 -0.007 0.000
2569 4 4.723 12.283 19.888 0.002 -0.002 -0.007 0.000
2572 4 6.238 14.151 19.976 -0.003 -0.002 -0.001 0.000
2573 4 8.604 12.453 20.027 0.005 0.012 0.001 0.000
2576 4 10.465 13.867 19.556 -0.013 -0.006 0.007 -0.000
2577 4 12.582 12.340 20.114 -0.003 0.005 0.008 -0.000
2580 4 14.187 14.345 20.127 0.013 -0.003 -0.009 0.000
2454 4 8.556 2.916 21.974 -0.010 -0.011 0.004 -0.000
2538 4 12.425 10.542 22.137 -0.014 0.001 -0.009 0.000
2578 4 12.148 14.262 21.704 -0.002 0.000 -0.002 0.000
2530 4 4.547 10.692 22.008 0.000 0.007 -0.013 -0.000
2523 4 -1.059 8.050 21.980 0.001 0.003 0.001 0.000
2406 4 0.962 -0.776 22.053 0.001 0.006 -0.011 -0.000
2490 4 4.532 6.604 21.873 0.012 0.002 -0.011 -0.000
2567 4 2.841 12.798 21.870 0.006 -0.006 0.001 0.000
2527 4 2.680 8.701 21.778 -0.003 0.007 -0.005 -0.000
2570 4 4.655 14.526 21.788 -0.004 0.002 0.007 0.000
2487 4 3.030 4.859 21.766 0.004 0.004 -0.004 -0.000
2575 4 10.711 12.233 21.458 0.001 -0.002 -0.009 0.000
2499 4 14.054 4.414 22.068 -0.002 0.011 0.002 0.000
2579 4 14.508 12.235 21.743 -0.006 0.003 0.004 0.000
2574 4 8.514 14.147 21.679 -0.003 -0.006 0.002 -0.000
2571 4 6.757 12.582 21.946 -0.005 0.013 -0.010 0.000
2455 4 10.470 0.585 21.883 -0.002 0.003 0.001 0.000
2535 4 10.850 8.434 21.998 0.000 -0.003 0.001 0.000
2450 4 4.823 2.965 21.607 0.008 0.015 -0.004 -0.000
2418 4 12.262 -1.216 21.574 -0.003 0.007 -0.001 -0.000
2498 4 12.944 6.692 21.730 -0.004 -0.005 0.002 -0.000
2410 4 4.506 -1.142 21.854 -0.002 0.001 -0.003 -0.000
2563 4 -1.161 12.368 21.659 -0.010 -0.000 0.002 0.000
2526 4 0.671 10.385 21.897 -0.003 -0.008 -0.021 -0.000
2486 4 1.373 6.831 22.012 0.000 -0.005 -0.005 -0.000
2451 4 6.684 0.842 21.535 0.000 0.004 -0.002 -0.000
2414 4 8.461 -1.114 21.536 -0.007 0.006 -0.001 -0.000
2531 4 6.409 8.513 22.158 -0.008 0.011 0.006 0.000
2494 4 8.483 6.797 22.045 -0.007 0.004 -0.001 -0.000
2483 4 -0.860 4.784 21.587 -0.008 -0.001 -0.007 -0.000
2443 4 -1.047 0.978 22.050 0.005 0.004 0.005 -0.000
2491 4 6.796 4.978 21.778 -0.000 0.001 -0.002 -0.000
2539 4 14.126 8.648 22.210 -0.004 -0.003 0.008 -0.000
2459 4 14.569 0.780 21.754 -0.004 0.006 -0.004 0.000
2534 4 8.740 10.067 21.759 0.001 0.007 -0.003 0.000
2495 4 10.950 4.973 21.905 0.000 -0.004 0.004 -0.000
2447 4 3.028 0.948 21.811 0.002 -0.001 0.002 0.000
2458 4 12.296 2.724 21.843 0.005 0.001 0.005 0.000
2011 4 6.675 -2.665 17.766 -0.002 -0.005 0.001 0.000
803 4 -1.268 -2.681 6.591 -0.002 0.003 0.011 0.000
1603 4 -1.294 -2.473 14.072 0.000 -0.011 -0.005 -0.000
1013 4 8.363 16.059 4.482 -0.003 0.000 0.003 0.000
411 4 6.381 -2.646 2.735 -0.003 0.001 0.001 0.000
1607 4 2.520 -2.467 14.018 -0.007 -0.004 0.000 -0.000
137 4 12.362 8.344 -2.654 0.000 -0.004 -0.004 -0.000
581 4 15.442 12.400 1.072 -0.005 -0.005 -0.005 0.000
2082 4 -2.817 7.186 17.867 -0.010 0.000 -0.004 -0.000
203 4 -0.982 15.810 -1.491 -0.006 0.004 0.010 0.000
2566 4 0.850 14.587 21.802 0.004 0.002 0.012 -0.000
1281 4 -2.809 4.605 8.480 -0.007 0.001 -0.000 -0.000
207 4 2.717 15.833 -1.189 0.001 -0.000 -0.005 0.000
93 4 8.283 4.726 -3.117 0.002 -0.000 -0.004 0.000
542 4 15.743 10.578 2.795 -0.006 -0.004 0.000 0.000
2481 4 -2.812 4.942 19.907 -0.002 0.003 0.011 -0.000
2121 4 -2.833 8.888 16.003 -0.003 0.004 0.013 0.000
2009 4 4.534 -2.960 15.936 0.005 -0.014 0.005 -0.000
2003 4 -0.636 -2.779 17.935 0.003 -0.006 0.000 -0.000
2101 4 16.113 5.066 15.751 0.004 -0.002 0.005 0.000
1222 4 16.053 -0.986 10.205 0.007 -0.003 -0.005 -0.000
2422 4 15.841 -1.339 21.616 0.006 -0.008 -0.012 -0.000
582 4 15.647 14.145 2.735 0.000 0.003 -0.015 -0.000
2521 4 -2.730 8.428 20.193 0.004 0.010 0.007 0.000
2002 4 -2.760 -1.016 18.130 -0.008 -0.014 0.002 0.000
2001 4 -2.633 -2.705 16.341 -0.002 0.003 -0.004 -0.000
1005 4 0.699 16.040 4.133 0.003 0.003 0.003 0.000
809 4 4.833 -2.904 4.837 0.015 -0.007 0.011 -0.000
2403 4 -1.236 -2.813 22.060 -0.004 -0.005 0.005 -0.000
1609 4 4.647 -2.604 12.452 -0.006 -0.005 -0.002 -0.000
2019 4 14.095 -2.812 17.719 0.006 -0.003 -0.001 0.000
2441 4 -2.862 1.301 19.407 0.002 0.007 -0.002 -0.000
881 4 -2.728 5.014 4.351 -0.007 0.009 -0.004 -0.000
1811 4 6.486 15.981 14.443 0.004 -0.001 -0.006 -0.000
415 4 10.148 -2.585 2.684 0.000 -0.005 -0.002 -0.000
2411 4 6.618 -2.482 21.915 0.000 0.001 -0.008 0.000
2446 4 0.901 2.863 22.053 0.001 -0.000 -0.004 -0.000
96 4 10.424 6.703 -2.854 0.007 0.001 0.001 0.000
132 4 6.716 10.613 -3.017 0.005 0.001 -0.001 -0.000
1261 4 15.829 1.006 8.273 0.010 0.001 0.008 0.000
621 4 16.034 15.864 0.638 0.010 0.007 -0.003 -0.000
2122 4 -2.958 10.653 17.721 -0.011 -0.005 -0.006 0.000
2401 4 -2.701 -2.699 20.043 -0.006 -0.006 -0.002 0.000
2005 4 0.515 -2.787 15.901 -0.002 0.007 0.010 -0.000
502 4 15.791 6.369 2.984 -0.000 -0.001 0.007 0.000
802 4 -2.943 -0.829 6.523 0.004 -0.010 -0.003 0.000
442 4 -2.843 2.738 2.493 0.003 0.001 0.007 0.000
1242 4 -2.876 2.799 10.647 0.001 -0.005 0.003 0.000