ITEM: TIMESTEP
48000
ITEM: NUMBER OF ATOMS
32000
ITEM: BOX BOUNDS pp pp pp
-2.985613 73.465613
-2.999217 73.479217
-3.081321 73.561321
ITEM: ATOMS id type x y z vx vy vz q
6 4 0.558 -1.082 -0.979 0.003 -0.003 0.007 -0.000
10 4 4.502 -1.061 -0.716 -0.005 0.000 0.007 0.000
14 4 8.532 -0.918 -1.014 -0.001 0.007 0.011 0.000
18 4 12.771 -1.425 -1.173 -0.004 0.002 0.001 -0.000
43 4 -1.622 0.964 -0.791 0.002 0.001 -0.008 0.000
46 4 0.155 2.616 -1.501 -0.008 0.008 -0.010 -0.000
47 4 2.597 1.158 -1.323 0.006 -0.005 -0.001 -0.000
50 4 4.546 2.787 -1.125 0.003 -0.010 0.004 0.000
51 4 6.254 0.899 -0.985 -0.006 -0.004 -0.005 0.000
54 4 8.699 2.323 -1.259 -0.000 0.005 -0.002 -0.000
55 4 10.684 0.546 -1.092 -0.007 -0.003 0.004 -0.000
58 4 12.712 2.237 -1.212 0.002 0.014 -0.002 -0.000
59 4 14.523 0.813 -1.193 -0.004 -0.000 0.006 -0.000
83 4 -1.117 5.142 -1.146 -0.003 -0.006 0.009 -0.000
86 4 0.914 6.778 -1.203 -0.015 -0.001 0.002 -0.000
87 4 2.778 4.760 -1.175 -0.005 -0.000 -0.007 -0.000
90 4 5.172 6.638 -1.231 -0.002 0.001 -0.001 0.000
91 4 6.505 4.492 -1.001 -0.008 0.014 -0.001 0.000
94 4 8.217 7.003 -1.042 0.012 0.002 0.001 0.000
95 4 10.720 4.564 -0.906 0.004 -0.001 0.002 -0.000
98 4 12.655 6.434 -1.329 0.011 -0.003 0.000 0.000
99 4 14.411 4.268 -1.529 0.003 0.003 0.004 -0.000
123 4 -0.919 8.242 -1.123 0.000 0.005 -0.002 -0.000
126 4 0.864 10.311 -0.762 0.006 0.006 -0.004 -0.000
127 4 2.770 8.273 -1.393 0.011 0.006 -0.007 -0.000
130 4 4.877 10.631 -1.386 0.006 -0.005 -0.010 -0.000
131 4 6.712 8.990 -1.275 0.009 -0.004 -0.007 -0.000
134 4 8.618 10.147 -0.936 0.005 -0.002 0.007 -0.000
135 4 10.459 8.631 -1.046 -0.009 0.000 -0.004 0.000
138 4 12.659 10.263 -0.985 -0.003 -0.001 -0.002 -0.000
139 4 14.717 8.847 -0.990 -0.002 -0.002 -0.013 -0.000
163 4 -1.141 11.898 -0.568 -0.003 -0.005 -0.006 -0.000
166 4 0.821 14.155 -0.601 0.011 -0.000 -0.004 -0.000
167 4 3.075 12.235 -1.022 0.006 0.009 -0.002 -0.000
170 4 4.858 14.069 -1.161 0.001 -0.010 -0.009 -0.000
171 4 7.061 12.461 -0.743 0.007 0.002 0.013 -0.000
174 4 8.863 14.181 -1.049 0.002 0.000 -0.002 -0.000
175 4 11.225 12.792 -0.549 -0.001 -0.007 0.016 -0.000
178 4 12.952 14.681 -0.523 0.007 -0.005 -0.004 0.000
179 4 13.982 12.578 -0.902 -0.000 0.004 0.004 -0.000
404 4 -1.485 -1.127 0.429 -0.010 -0.006 0.018 0.000
406 4 0.284 -0.957 2.172 -0.007 -0.002 0.003 0.000
408 4 2.276 -1.292 0.758 -0.008 -0.002 -0.003 0.000
410 4 4.721 -1.449 2.093 -0.000 -0.006 0.000 0.000
412 4 6.702 -1.227 0.452 -0.007 -0.002 0.006 0.000
414 4 8.490 -0.964 2.264 0.002 -0.004 -0.001 -0.000
416 4 10.762 -1.155 0.514 -0.007 0.007 -0.000 -0.000
418 4 12.565 -1.504 2.866 -0.002 0.011 -0.009 0.000
420 4 14.802 -1.014 0.453 0.006 0.009 -0.002 -0.000
443 4 -1.019 0.924 2.978 -0.008 -0.005 -0.009 -0.000
444 4 -1.029 2.660 1.123 0.002 -0.002 -0.002 -0.000
445 4 0.854 0.852 0.495 -0.009 0.002 -0.005 -0.000
446 4 0.914 2.345 2.878 0.012 0.000 -0.010 -0.000
447 4 2.713 0.573 2.618 -0.005 -0.004 -0.007 0.000
448 4 2.753 3.005 0.905 -0.011 -0.007 -0.005 0.000
449 4 4.310 1.038 0.819 0.006 -0.008 -0.002 0.000
450 4 5.027 2.948 2.516 0.013 -0.014 -0.016 0.000
451 4 6.505 0.477 2.391 -0.005 0.003 0.009 0.000
452 4 6.635 2.487 0.318 -0.009 0.003 0.002 0.000
453 4 8.907 0.982 0.831 -0.003 -0.009 0.004 -0.000
454 4 8.265 2.480 2.535 -0.001 -0.010 -0.005 0.000
455 4 10.660 0.483 2.575 0.009 0.011 0.000 -0.000
456 4 10.728 2.824 0.468 0.002 0.011 -0.003 -0.000
457 4 12.471 0.546 0.799 -0.017 -0.001 0.012 -0.000
458 4 12.300 2.718 2.589 0.011 -0.004 0.002 -0.000
459 4 14.477 0.448 2.338 0.001 0.010 -0.000 -0.000
460 4 14.421 2.732 0.604 -0.002 0.005 0.003 -0.000
483 4 -1.209 4.652 2.512 0.004 -0.006 0.006 -0.000
484 4 -1.085 6.804 1.340 0.005 -0.003 -0.004 -0.000
485 4 0.880 4.882 0.576 0.007 -0.003 0.003 -0.000
486 4 1.023 6.597 3.004 0.005 0.001 0.004 -0.000
487 4 2.702 4.936 2.534 0.005 -0.003 0.005 -0.000
488 4 2.693 6.843 1.051 -0.002 0.005 -0.003 -0.000
489 4 4.360 4.710 0.749 0.003 -0.001 -0.006 0.000
490 4 4.967 6.649 2.552 -0.009 -0.002 0.001 0.000
491 4 6.685 4.759 1.910 -0.006 0.003 0.009 0.000
492 4 6.680 6.810 0.695 -0.001 0.009 0.002 0.000
493 4 8.418 4.409 0.294 -0.006 0.005 -0.005 0.000
494 4 8.682 6.517 2.479 -0.004 -0.005 0.002 0.000
495 4 9.957 4.467 2.149 0.002 -0.004 -0.003 0.000
496 4 10.406 6.697 0.384 -0.000 -0.001 -0.013 0.000
497 4 12.729 4.444 0.763 0.012 0.009 -0.000 -0.000
498 4 11.842 6.291 2.596 -0.007 0.008 -0.003 0.000
499 4 14.172 4.680 2.795 -0.002 0.005 -0.001 -0.000
500 4 14.129 6.529 1.182 -0.007 -0.006 -0.001 0.000
523 4 -1.110 8.767 2.961 0.005 -0.006 0.002 -0.000
524 4 -0.891 10.297 1.126 -0.009 -0.003 0.001 0.000
525 4 0.842 8.776 1.048 -0.002 -0.005 0.003 -0.000
526 4 1.262 10.489 3.031 0.003 0.016 -0.007 -0.000
527 4 2.869 8.465 2.734 -0.006 -0.005 -0.006 -0.000
528 4 3.246 10.115 0.855 -0.010 -0.006 0.002 -0.000
529 4 4.897 8.373 0.465 -0.002 -0.004 0.003 -0.000
530 4 4.752 10.507 2.728 -0.008 0.007 0.001 -0.000
531 4 6.805 8.750 2.643 -0.018 0.006 -0.009 -0.000
532 4 6.340 10.556 0.773 -0.001 -0.004 0.006 -0.000
533 4 8.533 8.640 0.972 -0.004 0.002 0.004 -0.000
534 4 8.639 10.877 2.596 0.004 -0.001 0.005 -0.000
535 4 11.138 8.615 2.154 -0.017 0.007 0.009 -0.000
536 4 11.124 10.819 1.024 -0.016 0.004 -0.006 -0.000
537 4 12.912 8.178 0.576 -0.008 -0.015 -0.005 -0.000
538 4 12.497 10.810 2.757 0.002 -0.002 0.006 -0.000
539 4 14.085 8.390 2.970 0.004 0.002 0.005 -0.000
540 4 14.251 10.854 0.911 -0.000 -0.015 0.001 -0.000
563 4 -1.067 12.197 2.928 -0.004 0.002 0.001 -0.000
564 4 -0.995 13.769 0.893 0.003 -0.001 0.007 -0.000
565 4 1.277 12.242 0.918 -0.001 0.001 -0.004 0.000
566 4 0.817 14.319 2.980 0.007 -0.001 -0.000 0.000
567 4 2.705 12.511 2.706 -0.002 -0.000 -0.000 0.000
568 4 2.839 14.283 1.127 -0.000 0.003 -0.000 0.000
569 4 4.544 12.246 1.213 0.003 0.002 0.008 -0.000
570 4 5.127 14.409 2.824 0.001 0.004 -0.009 0.000
571 4 6.591 12.432 2.907 0.006 -0.002 0.001 -0.000
572 4 6.962 14.118 0.913 0.002 -0.001 -0.000 -0.000
573 4 9.115 12.257 0.923 -0.006 -0.004 -0.006 -0.000
574 4 8.904 14.438 2.501 -0.003 -0.005 -0.002 -0.000
575 4 10.444 12.686 2.923 0.005 -0.006 -0.003 -0.000
576 4 10.522 14.578 0.736 -0.002 0.003 -0.008 -0.000
577 4 12.370 12.985 1.283 -0.011 0.001 -0.003 -0.000
578 4 12.323 14.720 3.252 -0.009 -0.000 -0.007 0.000
579 4 14.031 12.661 2.552 -0.001 0.010 -0.005 0.000
580 4 14.296 15.067 1.508 0.008 -0.008 0.006 0.000
804 4 -1.058 -1.195 5.000 0.000 0.001 0.004 -0.000
806 4 1.013 -0.851 6.491 0.006 -0.002 0.005 -0.000
808 4 2.788 -1.308 4.299 0.002 0.005 -0.008 0.000
810 4 4.679 -1.401 5.893 0.004 -0.005 0.010 -0.000
812 4 6.665 -1.315 4.110 -0.015 -0.003 -0.004 -0.000
814 4 8.830 -1.232 6.349 0.003 0.005 0.003 0.000
816 4 10.562 -1.117 4.535 -0.002 0.001 -0.010 0.000
818 4 12.588 -1.073 6.457 -0.006 0.003 0.010 0.000
820 4 14.275 -1.214 4.878 0.004 -0.003 -0.003 0.000
843 4 -1.145 1.073 6.366 0.005 -0.002 -0.002 -0.000
844 4 -0.933 2.740 4.455 -0.004 0.002 -0.007 -0.000
845 4 0.944 0.613 4.624 0.002 0.000 -0.010 -0.000
846 4 0.686 2.516 6.399 0.003 0.004 -0.004 -0.000
847 4 2.814 1.090 6.453 -0.014 -0.007 -0.002 -0.000
848 4 2.922 2.934 4.644 0.007 0.001 -0.005 0.000
849 4 4.492 0.459 4.680 -0.013 -0.000 0.006 0.000
850 4 5.179 2.670 6.337 0.001 0.006 -0.014 0.000
851 4 6.608 0.293 6.076 0.001 -0.006 -0.006 -0.000
852 4 6.347 2.434 4.448 -0.005 0.006 -0.010 0.000
853 4 8.442 0.483 4.138 0.007 -0.011 -0.000 -0.000
854 4 8.404 2.462 6.483 0.014 -0.001 0.010 0.000
855 4 10.703 0.881 6.023 0.007 -0.009 0.010 0.000
856 4 10.542 2.654 4.034 -0.002 -0.002 0.010 -0.000
857 4 12.934 0.535 4.277 -0.004 -0.011 -0.001 -0.000
858 4 12.062 3.059 6.253 -0.001 0.001 -0.005 0.000
859 4 14.198 0.999 6.354 -0.003 0.004 -0.003 0.000
860 4 14.354 2.578 4.282 0.000 0.008 0.007 -0.000
883 4 -1.144 4.560 6.463 -0.003 -0.000 0.010 0.000
884 4 -1.045 6.528 4.489 -0.000 0.006 -0.004 -0.000
885 4 0.902 4.412 4.447 0.003 0.001 0.005 -0.000
886 4 0.721 6.370 6.519 -0.011 0.004 -0.005 0.000
887 4 3.144 4.404 6.564 -0.004 0.004 0.000 0.000
888 4 3.004 6.403 4.861 0.002 0.010 -0.014 -0.000
889 4 5.114 4.588 4.416 -0.004 0.000 -0.004 0.000
890 4 5.038 6.386 6.440 -0.004 -0.003 -0.010 0.000
891 4 6.950 4.870 6.770 0.002 -0.004 -0.007 0.000
892 4 6.707 6.771 4.399 -0.006 -0.002 0.006 0.000
893 4 7.843 4.686 4.236 0.003 -0.006 -0.001 0.000
894 4 8.547 6.932 6.390 0.010 -0.010 0.007 0.000
895 4 10.247 4.875 6.292 -0.006 -0.000 -0.004 0.000
896 4 10.572 6.577 4.572 0.004 0.002 0.004 0.000
897 4 11.915 4.563 4.014 -0.006 0.016 0.000 0.000
898 4 12.795 6.262 6.570 0.007 -0.012 -0.004 0.000
899 4 14.079 4.045 6.176 0.003 0.011 0.015 -0.000
900 4 14.444 6.629 4.534 0.001 -0.004 -0.006 0.000
923 4 -0.951 8.357 6.249 -0.006 0.006 0.006 0.000
924 4 -0.496 10.668 4.706 0.006 -0.009 -0.018 -0.000
925 4 1.204 8.542 4.478 -0.003 0.003 -0.007 -0.000
926 4 1.366 10.566 6.254 0.006 -0.002 -0.002 0.000
927 4 3.085 7.974 6.516 -0.004 0.006 -0.010 0.000
928 4 3.206 10.359 4.645 -0.004 0.001 0.011 -0.000
929 4 4.722 8.334 4.123 0.002 -0.007 -0.007 -0.000
930 4 4.908 10.339 6.453 0.004 0.001 0.005 -0.000
931 4 6.534 8.277 6.323 -0.012 0.004 0.004 -0.000
932 4 6.841 10.636 4.407 -0.005 -0.004 0.003 -0.000
933 4 8.893 9.040 4.132 -0.003 0.006 0.004 -0.000
934 4 8.660 10.401 6.275 0.002 -0.008 0.005 -0.000
935 4 10.481 8.525 6.440 0.009 -0.007 -0.001 0.000
936 4 10.648 10.672 4.305 0.007 0.004 0.001 -0.000
937 4 12.436 8.672 5.116 -0.001 -0.002 0.001 0.000
938 4 12.566 10.712 6.609 0.002 -0.003 0.007 -0.000
939 4 14.599 8.512 6.459 -0.008 0.000 -0.001 -0.000
940 4 14.405 10.431 4.857 0.008 0.002 -0.005 -0.000
963 4 -0.847 12.257 6.836 0.000 -0.009 -0.011 -0.000
964 4 -1.187 14.142 5.013 -0.004 -0.005 0.002 -0.000
965 4 1.265 12.939 4.737 -0.002 0.002 0.006 0.000
966 4 1.239 14.561 6.272 0.000 -0.004 0.003 -0.000
967 4 3.103 12.551 6.317 -0.003 0.011 -0.003 0.000
968 4 3.067 14.782 4.462 0.008 0.011 -0.005 0.000
969 4 4.720 12.676 4.321 -0.000 0.005 -0.002 0.000
970 4 4.863 14.459 6.383 -0.000 0.008 -0.002 0.000
971 4 6.779 12.303 6.585 -0.013 0.016 0.001 -0.000
972 4 7.001 14.673 4.769 0.009 0.008 -0.008 0.000
973 4 8.525 12.621 4.741 0.000 0.004 -0.012 -0.000
974 4 8.316 14.235 6.621 0.006 0.004 -0.009 0.000
975 4 10.516 12.210 6.357 0.006 0.000 0.007 -0.000
976 4 10.270 14.677 4.967 0.002 0.003 0.004 -0.000
977 4 12.713 12.451 4.808 0.005 -0.004 0.008 -0.000
978 4 12.417 14.412 6.545 -0.010 0.008 -0.000 0.000
979 4 14.449 12.584 6.700 -0.001 -0.000 0.002 -0.000
980 4 14.371 14.559 4.896 0.003 -0.006 0.003 0.000
1204 4 -1.015 -0.526 7.942 -0.008 0.001 0.004 0.000
1206 4 0.848 -1.049 9.817 -0.006 -0.004 0.000 0.000
1208 4 2.829 -1.014 8.060 0.006 0.001 -0.002 0.000
1210 4 4.560 -1.258 10.187 -0.006 0.000 -0.013 -0.000
1212 4 6.571 -1.073 8.510 -0.009 -0.005 0.004 -0.000
1214 4 8.445 -1.286 10.248 -0.001 0.020 -0.001 -0.000
1216 4 10.684 -0.939 8.221 -0.001 0.008 0.004 0.000
1218 4 12.399 -1.021 10.085 -0.001 0.004 0.004 -0.000
1220 4 14.602 -0.960 8.072 -0.006 0.008 0.004 0.000
1243 4 -1.052 0.605 10.252 0.000 -0.006 -0.001 0.000
1244 4 -1.046 2.661 8.248 0.014 0.003 0.009 -0.000
1245 4 1.030 0.751 8.186 0.003 0.003 -0.010 -0.000
1246 4 0.635 2.014 10.132 -0.008 0.017 -0.006 -0.000
1247 4 2.736 0.434 10.301 -0.003 0.003 0.002 -0.000
1248 4 3.318 2.927 8.566 0.003 0.013 -0.005 -0.000
1249 4 4.582 0.705 8.427 -0.013 -0.010 0.001 -0.000
1250 4 4.949 2.734 10.456 0.002 0.006 0.007 -0.000
1251 4 6.534 0.610 10.134 0.004 0.003 -0.000 -0.000
1252 4 6.793 2.999 8.366 0.006 -0.000 -0.001 0.000
1253 4 8.519 0.942 8.290 -0.002 0.012 0.008 -0.000
1254 4 8.315 2.930 10.326 0.002 0.001 -0.002 -0.000
1255 4 10.459 0.864 10.028 -0.004 0.012 -0.006 -0.000
1256 4 10.426 2.993 8.036 0.003 -0.007 0.006 0.000
1257 4 12.452 0.857 7.978 -0.006 0.003 0.001 0.000
1258 4 12.538 2.385 9.960 0.006 -0.004 0.001 -0.000
1259 4 14.620 0.641 10.026 0.006 0.003 0.001 -0.000
1260 4 14.067 2.758 7.882 -0.005 0.005 -0.007 -0.000
1283 4 -0.691 4.407 10.528 0.002 0.001 -0.003 -0.000
1284 4 -0.384 6.368 8.550 -0.007 0.005 -0.011 0.000
1285 4 1.104 4.242 8.511 -0.006 -0.001 -0.008 0.000
1286 4 1.259 6.476 10.497 0.011 0.019 -0.008 0.000
1287 4 3.239 4.530 10.754 -0.000 0.000 -0.004 0.000
1288 4 3.158 6.168 8.423 -0.006 -0.006 -0.008 0.000
1289 4 5.205 4.704 8.800 -0.005 0.011 -0.001 0.000
1290 4 4.738 6.600 10.443 0.015 -0.006 0.002 0.000
1291 4 6.744 5.022 10.853 -0.005 0.008 0.013 0.000
1292 4 6.548 6.737 8.583 -0.008 0.003 0.005 0.000
1293 4 8.658 4.690 8.466 -0.004 0.000 0.006 0.000
1294 4 8.858 6.635 10.410 0.005 0.003 -0.000 0.000
1295 4 10.653 4.450 10.458 0.008 -0.001 -0.001 0.000
1296 4 10.455 6.683 8.479 0.002 0.003 0.001 0.000
1297 4 12.256 4.680 8.274 0.003 -0.007 0.014 0.000
1298 4 12.053 7.121 10.226 -0.001 -0.003 0.004 0.000
1299 4 14.201 4.304 9.926 0.004 -0.004 -0.005 -0.000
1300 4 14.291 6.314 8.418 0.005 0.002 0.002 -0.000
1323 4 -0.736 8.228 10.314 0.009 -0.012 0.000 0.000
1324 4 -1.014 10.163 8.553 0.002 0.005 0.002 0.000
1325 4 0.936 8.712 8.109 -0.006 0.009 -0.005 0.000
1326 4 0.958 10.183 10.638 -0.002 0.007 -0.008 0.000
1327 4 2.735 8.413 10.238 0.004 0.005 -0.005 0.000
1328 4 3.314 10.593 8.366 -0.012 -0.004 0.006 0.000
1329 4 5.021 8.304 8.310 -0.001 0.007 0.001 -0.000
1330 4 5.064 10.241 10.481 -0.014 -0.001 0.004 0.000
1331 4 6.796 7.929 10.472 0.009 0.002 0.011 -0.000
1332 4 6.542 10.248 8.455 0.006 0.004 0.010 -0.000
1333 4 8.290 8.308 8.568 -0.000 -0.009 -0.011 0.000
1334 4 8.732 10.307 10.160 -0.002 0.006 0.003 -0.000
1335 4 10.365 8.763 10.534 0.003 -0.010 0.001 0.000
1336 4 10.240 10.009 8.351 -0.000 0.009 0.002 -0.000
1337 4 12.685 8.340 8.317 0.002 -0.001 -0.002 0.000
1338 4 12.472 10.652 10.197 -0.001 -0.005 0.003 0.000
1339 4 14.351 8.705 10.432 -0.005 -0.001 0.013 -0.000
1340 4 14.474 10.525 8.384 -0.002 -0.001 0.009 -0.000
1363 4 -1.110 12.185 10.522 0.001 -0.005 -0.004 -0.000
1364 4 -1.025 14.102 8.420 0.001 0.002 0.004 -0.000
1365 4 0.953 11.364 8.679 -0.011 -0.005 -0.006 0.000
1366 4 0.843 13.722 9.885 -0.003 -0.003 0.006 -0.000
1367 4 3.235 12.366 10.231 0.001 -0.006 0.005 0.000
1368 4 3.189 14.367 8.019 0.006 0.004 0.006 0.000
1369 4 5.050 12.352 8.282 0.004 0.000 -0.009 0.000
1370 4 5.741 14.220 10.226 -0.001 -0.002 0.001 0.000
1371 4 7.031 12.232 10.592 0.009 -0.003 -0.001 -0.000
1372 4 7.021 14.819 8.282 0.010 -0.008 -0.003 0.000
1373 4 8.729 12.340 8.256 -0.003 0.005 -0.006 -0.000
1374 4 8.871 14.268 10.373 -0.004 -0.006 -0.003 0.000
1375 4 10.567 12.531 10.307 -0.003 0.001 0.005 0.000
1376 4 10.810 14.234 8.088 0.006 -0.001 0.019 -0.000
1377 4 12.439 12.479 8.440 -0.010 -0.004 -0.010 -0.000
1378 4 12.585 14.718 10.480 0.007 0.005 0.002 0.000
1379 4 14.452 12.444 10.395 -0.002 -0.008 0.002 0.000
1380 4 14.158 14.318 8.196 -0.005 0.004 0.003 0.000
1604 4 -0.718 -0.949 12.482 0.008 0.002 0.003 0.000
1606 4 1.190 -1.135 13.867 0.008 0.004 -0.000 0.000
1608 4 2.978 -1.420 11.788 0.003 -0.002 0.002 0.000
1610 4 4.847 -1.376 13.877 -0.004 0.001 -0.000 -0.000
1612 4 6.345 -1.000 12.172 -0.001 0.010 0.014 -0.000
1614 4 8.324 -0.977 13.762 0.007 -0.011 -0.007 -0.000
1616 4 10.618 -0.934 11.986 0.005 -0.009 -0.013 -0.000
1618 4 12.206 -0.830 14.100 0.001 -0.005 -0.006 -0.000
1620 4 14.040 -0.846 11.938 0.002 -0.001 -0.003 -0.000
1643 4 -0.791 0.807 14.256 -0.002 0.001 -0.005 0.000
1644 4 -1.293 2.567 12.214 0.003 -0.000 0.003 -0.000
1645 4 1.065 0.808 12.075 0.006 0.008 0.006 -0.000
1646 4 0.801 2.657 14.308 -0.000 0.002 -0.004 -0.000
1647 4 3.075 0.871 13.968 0.003 -0.002 -0.002 -0.000
1648 4 2.895 2.671 12.177 0.009 -0.003 0.002 -0.000
1649 4 4.661 0.685 11.722 -0.014 -0.000 0.007 -0.000
1650 4 4.772 2.806 14.571 0.007 0.002 -0.002 -0.000
1651 4 6.308 0.663 14.230 0.010 -0.005 0.010 -0.000
1652 4 6.524 2.671 12.363 -0.008 0.005 -0.002 -0.000
1653 4 8.711 0.805 11.733 0.007 -0.001 -0.000 -0.000
1654 4 8.399 2.745 14.132 0.009 0.011 0.003 -0.000
1655 4 10.279 0.845 13.883 0.001 0.005 0.008 -0.000
1656 4 10.364 2.613 12.075 -0.004 0.001 0.012 -0.000
1657 4 12.735 0.688 11.888 0.003 -0.002 0.010 -0.000
1658 4 12.378 2.781 14.147 -0.004 -0.002 0.003 -0.000
1659 4 14.319 0.890 13.850 -0.003 -0.018 0.017 -0.000
1660 4 14.184 2.613 12.193 -0.008 0.004 0.001 -0.000
1683 4 -1.159 4.434 14.115 -0.006 0.008 -0.004 -0.000
1684 4 -1.184 6.384 11.701 0.006 0.003 -0.003 -0.000
1685 4 1.193 4.319 12.518 -0.001 0.009 -0.007 -0.000
1686 4 0.814 6.566 13.783 -0.003 -0.003 -0.010 -0.000
1687 4 2.941 5.004 14.485 0.009 -0.000 -0.011 -0.000
1688 4 3.118 6.640 12.363 -0.003 -0.002 -0.008 -0.000
1689 4 4.958 4.511 12.489 -0.006 -0.002 -0.003 -0.000
1690 4 4.860 6.718 14.329 -0.004 0.012 -0.006 -0.000
1691 4 6.380 4.661 14.262 0.002 -0.002 -0.003 -0.000
1692 4 6.340 6.662 12.778 0.002 0.001 -0.005 -0.000
1693 4 8.444 4.471 12.126 0.003 -0.004 -0.004 0.000
1694 4 8.797 6.545 14.175 -0.006 0.003 0.007 -0.000
1695 4 10.380 4.550 13.987 0.004 0.011 0.007 -0.000
1696 4 10.667 6.329 12.432 0.002 0.005 -0.007 0.000
1697 4 12.895 4.839 12.132 -0.005 0.012 -0.008 -0.000
1698 4 12.195 6.533 14.232 0.002 0.003 -0.005 -0.000
1699 4 14.018 4.961 14.615 -0.004 -0.003 -0.008 0.000
1700 4 14.035 6.882 12.308 -0.011 -0.001 0.004 -0.000
1723 4 -1.300 7.930 13.952 0.005 -0.001 -0.010 -0.000
1724 4 -1.065 9.779 12.336 -0.000 -0.004 0.001 -0.000
1725 4 1.073 8.307 12.274 -0.004 0.001 0.007 0.000
1726 4 0.938 10.384 14.024 -0.001 -0.005 0.004 -0.000
1727 4 2.955 8.432 13.926 0.005 0.012 0.000 -0.000
1728 4 2.998 10.461 11.862 0.008 -0.001 -0.005 0.000
1729 4 4.782 8.459 12.223 0.002 -0.006 -0.005 -0.000
1730 4 5.130 10.323 14.602 -0.003 -0.004 0.002 -0.000
1731 4 7.142 8.544 14.268 0.004 -0.002 0.006 -0.000
1732 4 7.069 10.135 12.197 0.002 -0.002 -0.017 -0.000
1733 4 8.580 7.990 12.576 -0.001 0.013 0.004 -0.000
1734 4 8.450 10.662 14.440 0.003 -0.009 0.008 -0.000
1735 4 10.774 8.904 14.126 0.014 -0.001 -0.001 -0.000
1736 4 10.477 10.585 12.146 0.009 -0.004 0.004 0.000
1737 4 12.409 8.876 12.012 -0.001 0.006 0.005 0.000
1738 4 12.699 10.750 14.236 0.003 -0.008 0.003 0.000
1739 4 14.158 8.369 14.317 -0.009 -0.002 -0.002 0.000
1740 4 14.252 10.533 12.375 -0.005 0.006 -0.002 0.000
1763 4 -0.666 11.905 14.174 0.001 -0.002 0.010 -0.000
1764 4 -0.952 13.861 12.454 0.004 -0.003 0.007 -0.000
1765 4 1.018 12.425 11.868 0.007 0.006 0.001 -0.000
1766 4 0.955 14.314 14.505 0.000 -0.000 0.002 -0.000
1767 4 2.521 12.373 13.913 0.008 -0.006 0.012 0.000
1768 4 3.089 14.188 12.099 0.002 0.008 -0.001 -0.000
1769 4 4.833 12.296 12.319 0.007 -0.005 0.005 0.000
1770 4 4.816 14.119 14.245 -0.005 0.000 -0.008 0.000
1771 4 6.726 12.368 14.274 0.003 -0.008 0.001 0.000
1772 4 7.055 14.144 12.502 0.009 -0.003 -0.002 0.000
1773 4 8.753 12.325 12.403 -0.006 -0.001 -0.005 0.000
1774 4 8.765 14.055 14.399 0.002 -0.004 -0.012 0.000
1775 4 10.689 12.343 14.010 -0.002 0.005 -0.005 0.000
1776 4 10.563 14.296 12.251 0.004 -0.005 -0.000 0.000
1777 4 12.597 12.729 12.406 -0.002 -0.003 -0.004 0.000
1778 4 12.661 14.710 14.580 -0.004 -0.008 -0.002 0.000
1779 4 14.546 12.515 14.249 0.005 -0.006 -0.016 0.000
1780 4 14.374 14.672 12.546 -0.008 0.009 -0.002 0.000
2004 4 -0.712 -1.177 15.628 0.002 -0.004 -0.007 0.000
2006 4 0.967 -1.107 18.110 0.001 -0.005 0.006 0.000
2008 4 2.951 -0.960 15.925 0.003 0.001 0.001 -0.000
2010 4 4.700 -1.092 18.056 -0.003 0.002 0.011 -0.000
2012 4 6.191 -1.327 15.833 0.001 0.000 -0.009 -0.000
2014 4 8.218 -1.273 17.951 -0.007 -0.001 -0.005 0.000
2016 4 10.223 -0.975 15.902 -0.001 0.016 -0.012 0.000
2018 4 12.384 -1.363 17.935 -0.003 -0.000 -0.002 0.000
2020 4 14.476 -0.429 16.073 0.004 -0.004 -0.004 0.000
2043 4 -0.912 0.697 17.803 0.003 0.000 0.000 0.000
2044 4 -1.118 2.712 16.105 0.005 0.009 -0.002 -0.000
2045 4 1.076 0.764 15.901 -0.006 0.011 -0.008 -0.000
2046 4 0.888 2.667 17.873 -0.004 -0.003 0.007 -0.000
2047 4 2.651 0.786 17.740 -0.003 0.008 -0.003 -0.000
2048 4 2.880 2.955 16.266 -0.001 -0.008 -0.002 -0.000
2049 4 4.690 0.947 16.139 0.015 -0.001 -0.006 -0.000
2050 4 4.923 2.913 17.855 0.004 -0.003 0.002 -0.000
2051 4 6.642 0.655 17.956 0.008 -0.004 -0.007 0.000
2052 4 6.997 2.339 16.063 0.001 -0.001 0.001 0.000
2053 4 8.484 0.257 15.825 -0.001 0.002 -0.006 0.000
2054 4 8.591 2.570 17.710 0.008 -0.001 -0.005 0.000
2055 4 10.257 0.899 18.134 -0.004 -0.002 -0.004 0.000
2056 4 10.399 2.389 15.633 0.014 -0.006 -0.008 -0.000
2057 4 12.686 0.842 15.837 -0.011 -0.003 0.005 -0.000
2058 4 12.017 2.281 17.614 0.001 -0.002 0.001 0.000
2059 4 14.033 0.896 18.659 -0.006 0.000 -0.001 0.000
2060 4 14.255 2.209 16.134 0.008 0.010 -0.000 -0.000
2083 4 -1.213 4.335 17.750 0.002 -0.003 -0.003 -0.000
2084 4 -1.030 6.118 15.898 0.010 -0.004 0.000 -0.000
2085 4 0.790 4.641 15.962 0.004 0.001 -0.002 -0.000
2086 4 0.928 6.379 17.668 0.001 -0.002 -0.007 -0.000
2087 4 3.036 4.978 18.169 -0.004 0.004 -0.002 -0.000
2088 4 2.746 6.884 15.756 0.007 -0.007 0.009 -0.000
2089 4 4.968 4.893 16.515 -0.010 0.009 -0.000 -0.000
2090 4 4.933 6.796 17.881 -0.008 -0.002 0.010 0.000
2091 4 6.873 4.512 18.014 -0.006 -0.003 0.003 0.000
2092 4 6.797 6.457 16.007 0.003 -0.011 0.004 0.000
2093 4 8.356 4.489 15.872 -0.009 0.010 0.010 0.000
2094 4 8.781 6.274 17.682 -0.001 0.008 -0.002 0.000
2095 4 10.308 4.081 18.090 -0.004 0.007 0.007 0.000
2096 4 10.471 6.594 15.934 0.005 0.006 0.002 -0.000
2097 4 11.738 4.526 15.959 -0.000 -0.005 0.002 -0.000
2098 4 12.029 6.076 18.019 -0.001 -0.001 0.003 0.000
2099 4 13.679 4.199 17.543 0.003 -0.000 0.003 0.000
2100 4 13.904 6.614 16.497 0.000 0.001 0.012 0.000
2123 4 -0.771 8.412 18.108 -0.011 -0.004 0.008 0.000
2124 4 -0.931 10.296 16.264 0.000 -0.012 -0.007 0.000
2125 4 0.441 8.424 15.703 0.003 -0.004 0.001 -0.000
2126 4 1.117 9.979 17.654 0.002 0.001 -0.010 0.000
2127 4 3.015 7.898 18.219 0.006 0.000 -0.002 0.000
2128 4 2.825 9.727 16.064 0.003 -0.002 0.012 0.000
2129 4 5.149 8.472 16.217 0.004 -0.003 -0.004 0.000
2130 4 4.777 9.811 18.065 -0.001 -0.007 -0.005 0.000
2131 4 6.994 8.123 17.774 0.006 -0.004 -0.002 0.000
2132 4 6.709 10.592 16.506 0.006 -0.000 0.010 0.000
2133 4 9.061 8.372 16.167 0.009 -0.003 -0.005 -0.000
2134 4 8.763 10.307 18.092 -0.001 -0.003 0.006 -0.000
2135 4 10.410 8.480 18.229 -0.001 -0.007 -0.007 -0.000
2136 4 10.715 10.589 16.036 -0.014 0.005 0.008 -0.000
2137 4 12.248 8.433 15.949 -0.001 -0.008 0.011 -0.000
2138 4 12.090 10.512 18.605 0.000 -0.001 -0.003 -0.000
2139 4 14.026 8.546 17.874 0.004 -0.000 0.004 -0.000
2140 4 14.325 10.357 16.423 -0.003 0.005 0.004 -0.000
2163 4 -0.368 11.952 17.762 0.013 0.002 -0.001 0.000
2164 4 -0.765 13.785 16.144 -0.004 0.012 -0.001 0.000
2165 4 1.356 11.835 15.949 0.007 -0.009 0.000 0.000
2166 4 1.109 14.131 17.883 0.009 -0.002 0.005 0.000
2167 4 2.872 11.769 17.894 0.006 0.004 0.008 0.000
2168 4 3.154 14.390 17.030 -0.008 0.000 0.005 0.000
2169 4 4.092 12.279 16.055 0.010 0.004 -0.001 0.000
2170 4 4.886 13.885 18.242 0.003 -0.008 -0.000 0.000
2171 4 6.566 12.060 18.555 -0.004 0.006 0.009 -0.000
2172 4 5.781 14.113 16.285 -0.004 0.007 0.006 0.000
2173 4 8.544 12.611 16.602 -0.001 0.002 -0.007 -0.000
2174 4 8.784 14.166 18.773 0.002 0.011 0.003 0.000
2175 4 10.603 12.597 18.197 0.002 0.007 0.001 -0.000
2176 4 10.447 14.884 16.253 0.004 0.003 0.006 0.000
2177 4 12.673 12.489 15.846 0.006 -0.002 -0.002 -0.000
2178 4 12.367 14.713 17.753 -0.002 0.001 0.011 0.000
2179 4 14.229 12.639 18.126 0.005 -0.002 -0.002 -0.000
2180 4 14.599 14.424 16.283 -0.003 0.008 -0.003 0.000
2404 4 -0.912 -1.330 19.681 -0.003 0.001 -0.005 -0.000
2408 4 2.933 -0.936 19.840 -0.007 0.000 -0.005 0.000
2412 4 6.506 -1.185 19.709 -0.001 -0.008 0.002 0.000
2416 4 10.291 -1.114 20.093 -0.006 0.007 0.007 -0.000
2420 4 14.603 -1.603 19.952 -0.010 0.001 0.005 0.000
2444 4 -0.981 2.729 19.607 0.006 -0.001 -0.001 0.000
2445 4 1.010 0.884 19.881 0.006 -0.003 -0.003 0.000
2448 4 2.837 2.692 19.621 0.006 0.000 0.004 -0.000
2449 4 4.543 1.088 19.714 0.000 0.002 -0.005 -0.000
2452 4 7.260 2.443 19.585 -0.004 -0.014 0.004 0.000
2453 4 8.420 0.572 20.073 0.009 -0.001 -0.003 0.000
2456 4 10.129 2.834 20.327 -0.002 -0.004 -0.003 0.000
2457 4 12.002 1.025 20.110 -0.001 -0.000 -0.007 0.000
2460 4 14.207 2.762 19.829 0.003 0.003 -0.009 0.000
2484 4 -1.205 6.010 19.980 -0.004 -0.009 0.004 -0.000
2485 4 1.019 4.279 19.830 0.001 -0.000 -0.005 0.000
2488 4 3.167 6.616 20.478 -0.000 0.000 0.000 -0.000
2489 4 4.690 4.258 19.612 0.002 0.003 -0.006 -0.000
2492 4 6.154 6.263 20.063 0.011 0.010 0.013 0.000
2493 4 8.365 4.744 20.060 0.005 0.011 -0.004 0.000
2496 4 10.216 6.625 20.008 0.004 -0.005 -0.010 0.000
2497 4 11.944 4.280 19.773 -0.003 0.001 -0.002 0.000
2500 4 13.955 6.253 19.482 -0.003 0.011 0.010 0.000
2524 4 -0.690 10.111 19.885 -0.000 -0.009 -0.002 0.000
2525 4 1.045 7.938 20.109 -0.004 -0.008 -0.001 0.000
2528 4 2.681 9.889 19.693 0.005 0.005 -0.010 0.000
2529 4 4.903 8.318 19.890 0.005 -0.014 0.001 -0.000
2532 4 6.579 10.111 19.625 -0.006 -0.006 -0.008 -0.000
2533 4 8.095 7.852 20.086 -0.007 -0.006 -0.001 0.000
2536 4 10.076 10.158 20.120 0.009 -0.002 0.003 -0.000
2537 4 12.267 8.281 19.949 0.001 0.003 -0.001 -0.000
2540 4 14.466 10.503 19.740 -0.007 0.002 0.004 -0.000
2564 4 -0.741 14.121 19.628 0.008 -0.006 0.010 0.000
2565 4 1.109 12.052 19.769 -0.004 -0.003 0.006 0.000
2568 4 3.005 14.373 19.706 -0.011 0.002 0.002 0.000
2569 4 4.599 12.171 20.045 0.011 0.001 -0.004 -0.000
2572 4 6.639 14.233 20.290 0.001 -0.007 -0.002 -0.000
2573 4 8.877 12.285 20.216 -0.000 -0.003 -0.013 -0.000
2576 4 10.987 14.097 20.119 -0.005 0.021 -0.001 0.000
2577 4 12.579 12.113 20.030 -0.003 -0.001 -0.002 -0.000
2580 4 14.194 13.921 20.044 -0.007 -0.014 0.007 0.000
2575 4 10.929 12.111 22.042 -0.001 -0.005 0.007 0.000
2451 4 6.792 0.472 21.801 0.001 -0.007 -0.004 -0.000
2450 4 5.066 2.268 21.646 -0.007 0.002 0.005 -0.000
2574 4 9.292 14.490 21.919 0.004 -0.011 0.001 0.000
2530 4 4.523 10.596 22.129 -0.007 -0.006 0.007 -0.000
2486 4 0.724 6.095 21.873 0.003 -0.004 0.016 0.000
2490 4 4.790 6.103 22.027 -0.002 -0.008 -0.002 -0.000
2523 4 -0.728 8.594 22.031 0.004 0.001 0.003 -0.000
2566 4 1.111 14.122 21.475 0.004 0.006 -0.010 0.000
2491 4 6.664 4.107 21.924 0.008 0.008 -0.006 -0.000
2454 4 8.446 2.558 21.978 0.000 -0.005 0.005 0.000
2499 4 14.448 5.356 21.874 0.001 0.001 0.003 0.000
2446 4 0.877 2.482 21.704 -0.003 0.005 -0.003 0.000
2483 4 -1.037 4.318 21.920 -0.007 0.003 0.001 0.000
2570 4 4.707 14.170 21.931 0.008 0.000 -0.008 -0.000
2531 4 5.900 8.577 22.168 -0.004 0.004 0.007 0.000
2414 4 8.524 -1.024 21.991 -0.010 -0.001 0.009 -0.000
2418 4 12.328 -1.011 21.696 -0.005 0.002 -0.004 -0.000
2495 4 10.353 4.891 21.792 -0.002 -0.008 -0.003 0.000
2487 4 3.401 4.192 21.797 -0.000 -0.002 0.006 -0.000
2578 4 12.502 13.940 22.416 0.009 0.000 -0.004 0.000
2459 4 14.223 1.013 21.481 -0.005 0.004 -0.010 0.000
2535 4 10.206 8.020 21.844 0.002 -0.007 -0.005 0.000
2498 4 12.347 6.347 21.543 0.008 -0.002 0.008 0.000
2494 4 7.854 6.732 22.062 0.000 0.011 -0.003 0.000
2406 4 0.992 -1.061 21.513 -0.007 -0.005 -0.002 0.000
2567 4 2.739 12.341 21.823 0.004 -0.005 -0.002 -0.000
2458 4 12.323 2.782 22.011 0.010 -0.013 0.004 0.000
2538 4 12.232 9.951 21.488 0.003 -0.006 -0.004 -0.000
2539 4 14.291 7.803 21.725 0.001 0.003 0.008 0.000
2443 4 -0.846 0.794 21.688 0.003 -0.004 -0.003 0.000
2563 4 -0.961 12.207 21.226 -0.004 0.012 -0.007 0.000
2455 4 10.213 0.777 21.772 -0.006 -0.010 0.010 0.000
2526 4 0.924 10.502 21.921 0.004 -0.007 -0.001 0.000
2447 4 2.768 1.007 21.750 0.004 0.001 -0.005 0.000
2410 4 4.535 -1.242 21.734 0.003 0.005 -0.004 0.000
2527 4 2.630 8.728 21.758 0.001 -0.004 -0.012 -0.000
2562 4 -2.927 13.902 21.483 -0.003 0.006 0.005 -0.000
1381 4 16.139 12.243 8.342 0.011 0.006 -0.002 -0.000
88 4 2.929 6.540 -3.101 -0.002 0.010 -0.005 -0.000
85 4 0.814 4.781 -3.042 0.005 -0.014 -0.002 -0.000
2481 4 -2.961 4.218 20.087 -0.006 -0.008 -0.001 -0.000
52 4 6.791 2.732 -2.890 0.000 0.006 0.003 -0.000
96 4 10.555 6.645 -2.660 -0.003 0.003 0.002 0.000
168 4 2.701 14.250 -2.932 0.008 -0.001 -0.002 -0.000
2607 4 2.997 15.946 21.714 -0.011 0.004 0.001 0.000
172 4 6.635 13.868 -2.853 0.000 -0.001 -0.010 -0.000
89 4 4.778 4.719 -3.105 -0.008 -0.003 -0.002 -0.000
125 4 0.875 8.703 -2.794 -0.006 0.014 -0.007 -0.000
2582 4 16.061 14.248 22.004 -0.004 0.002 -0.006 0.000
582 4 16.082 14.895 3.091 0.009 0.010 -0.004 0.000
122 4 -2.962 10.363 -0.686 -0.001 -0.004 -0.001 -0.000
1361 4 -2.840 12.116 8.467 -0.003 -0.007 0.007 -0.000
128 4 2.656 10.341 -2.736 0.014 -0.003 -0.003 -0.000
961 4 -2.713 12.158 4.966 -0.011 -0.005 -0.010 -0.000
2082 4 -2.858 6.332 17.728 -0.004 -0.009 0.003 -0.000
142 4 16.024 10.907 -1.385 0.010 0.010 0.007 -0.000
2042 4 -3.093 2.755 17.966 -0.016 0.005 -0.001 -0.000
2442 4 -2.927 2.442 21.701 -0.005 0.002 0.001 0.000
2482 4 -2.679 6.471 22.008 -0.001 -0.007 0.002 -0.000
922 4 -2.797 10.299 6.691 0.007 0.003 0.007 0.000
2615 4 11.525 15.757 21.648 -0.001 0.003 0.003 0.000
12 4 6.568 -1.684 -2.539 0.007 0.004 -0.001 0.000
203 4 -0.869 15.848 -0.808 -0.006 0.002 -0.009 -0.000
2601 4 -2.463 15.882 19.492 -0.011 0.006 0.012 -0.000
2203 4 -0.718 15.834 17.674 -0.001 0.004 0.007 -0.000
807 4 2.544 -2.753 6.400 0.004 -0.006 -0.006 0.000
541 4 15.720 8.381 1.269 -0.005 0.001 -0.003 -0.000
1241 4 -3.006 1.084 8.286 -0.006 0.002 0.001 0.000
1615 4 10.548 -2.965 14.164 -0.000 -0.009 -0.001 0.000
1605 4 0.798 -2.960 11.956 -0.011 -0.005 0.006 0.000
2019 4 14.400 -2.975 17.730 -0.002 0.000 0.005 0.000
2122 4 -2.856 9.737 17.886 -0.003 0.006 -0.001 0.000
2013 4 8.539 -2.772 15.789 -0.004 -0.001 -0.004 0.000
2571 4 6.684 11.891 21.601 0.009 -0.005 0.007 -0.000
49 4 4.748 0.661 -2.799 0.006 -0.011 0.002 -0.000
542 4 15.823 10.409 2.661 0.000 0.004 0.003 -0.000
2441 4 -2.843 0.959 19.726 -0.006 -0.000 0.003 0.000
2521 4 -2.534 8.057 20.016 -0.004 0.006 0.002 -0.000
1803 4 -0.793 15.788 14.248 0.002 -0.004 -0.004 -0.000
136 4 10.592 10.463 -2.990 0.004 0.007 -0.004 0.000
4 4 -1.364 -1.039 -2.850 0.003 -0.003 -0.003 0.000
521 4 -2.860 8.484 1.003 -0.002 -0.012 -0.000 0.000
1805 4 1.091 15.826 12.178 0.000 0.002 -0.011 -0.000
2603 4 -1.030 15.740 21.675 0.006 -0.003 0.009 0.000