ITEM: TIMESTEP
58000
ITEM: NUMBER OF ATOMS
32000
ITEM: BOX BOUNDS pp pp pp
-3.067236 73.547236
-2.910205 73.390205
-3.047228 73.527228
ITEM: ATOMS id type x y z vx vy vz q
6 4 0.269 -0.659 -1.035 -0.003 -0.000 -0.009 -0.000
10 4 4.158 -0.755 -1.255 0.006 0.000 0.006 -0.000
14 4 8.355 -1.132 -0.920 0.012 0.002 0.001 -0.000
18 4 12.482 -1.047 -1.319 0.008 -0.004 -0.003 0.000
43 4 -1.105 1.667 -1.071 0.001 -0.000 0.002 -0.000
46 4 1.071 2.835 -0.977 0.009 0.008 0.004 -0.000
47 4 2.669 1.067 -1.092 0.000 -0.004 -0.007 -0.000
50 4 4.756 2.475 -1.439 -0.007 0.012 0.002 -0.000
51 4 6.321 0.397 -1.896 -0.001 -0.008 0.007 0.000
54 4 8.181 2.857 -1.123 -0.008 0.002 -0.001 0.000
55 4 10.282 0.848 -0.667 -0.013 0.007 -0.005 -0.000
58 4 12.005 2.884 -1.019 0.006 0.004 0.003 -0.000
59 4 14.072 0.819 -1.017 0.005 0.000 0.012 0.000
83 4 -0.695 4.527 -1.185 -0.005 -0.009 0.004 -0.000
86 4 0.873 6.530 -0.810 -0.005 -0.001 0.016 0.000
87 4 2.850 5.065 -1.345 0.007 -0.011 0.005 -0.000
90 4 4.527 7.144 -1.253 0.006 -0.002 0.006 -0.000
91 4 6.027 4.770 -0.811 -0.003 0.002 0.004 0.000
94 4 7.955 6.935 -0.992 -0.005 0.001 0.003 -0.000
95 4 10.155 4.897 -1.098 0.003 -0.003 -0.001 -0.000
98 4 12.056 6.946 -1.286 0.006 -0.006 -0.004 -0.000
99 4 13.657 5.123 -0.806 -0.007 0.001 0.006 -0.000
123 4 -1.140 8.407 -0.996 0.006 0.010 0.007 0.000
126 4 0.538 10.567 -0.794 0.001 0.006 -0.005 -0.000
127 4 2.801 9.146 -1.086 -0.006 -0.001 -0.011 -0.000
130 4 4.752 10.633 -1.181 0.007 0.003 -0.004 -0.000
131 4 6.185 8.743 -0.890 -0.008 -0.006 0.003 0.000
134 4 8.143 10.449 -0.997 -0.006 0.005 -0.003 0.000
135 4 10.280 8.868 -0.961 0.003 -0.001 0.004 -0.000
138 4 11.952 10.843 -0.596 -0.005 0.007 -0.000 -0.000
139 4 13.652 9.014 -1.047 0.002 0.009 -0.003 0.000
163 4 -0.688 12.707 -1.147 0.003 -0.004 -0.005 -0.000
166 4 0.593 14.605 -1.196 0.005 0.002 -0.001 0.000
167 4 2.901 12.431 -0.902 -0.007 0.011 -0.003 -0.000
170 4 4.466 14.645 -1.220 0.002 -0.001 -0.010 -0.000
171 4 6.383 12.178 -1.113 -0.002 -0.002 -0.001 -0.000
174 4 8.280 14.457 -1.501 -0.005 -0.004 -0.000 -0.000
175 4 10.094 12.361 -1.449 0.000 -0.004 0.005 -0.000
178 4 12.332 13.920 -0.826 -0.003 -0.009 -0.003 -0.000
179 4 14.228 12.314 -1.352 0.003 -0.006 0.007 -0.000
404 4 -1.050 -1.187 0.886 -0.003 0.000 0.004 -0.000
406 4 0.575 -1.215 2.737 0.020 0.002 -0.001 0.000
408 4 2.260 -0.602 0.705 0.003 0.007 -0.000 0.000
410 4 4.811 -0.856 2.964 0.003 0.006 0.005 0.000
412 4 6.530 -1.054 0.557 0.005 -0.006 -0.002 0.000
414 4 8.431 -0.904 2.266 -0.002 -0.000 -0.004 -0.000
416 4 10.432 -1.465 0.563 0.001 0.002 0.000 0.000
418 4 12.026 -0.848 2.756 0.006 0.003 -0.002 -0.000
420 4 13.903 -0.774 0.863 -0.002 0.011 0.010 0.000
443 4 -0.855 1.035 3.182 0.001 0.008 -0.007 0.000
444 4 -1.031 3.094 1.012 0.008 -0.002 -0.002 0.000
445 4 0.464 1.092 1.018 0.006 -0.004 0.013 0.000
446 4 0.932 2.856 2.685 0.005 0.004 0.003 0.000
447 4 2.679 0.928 2.798 0.002 0.004 -0.004 0.000
448 4 2.796 2.478 0.839 0.002 0.003 -0.003 0.000
449 4 4.858 0.470 0.994 -0.012 0.003 0.001 0.000
450 4 4.509 2.637 3.061 0.001 -0.000 0.008 0.000
451 4 6.788 0.984 2.914 0.005 0.001 0.005 0.000
452 4 6.233 2.856 0.527 -0.004 0.003 -0.003 0.000
453 4 8.072 1.251 0.669 -0.002 0.008 0.002 0.000
454 4 8.259 3.178 2.869 -0.004 -0.002 -0.004 -0.000
455 4 10.137 1.290 2.493 0.003 -0.003 0.006 -0.000
456 4 10.043 3.207 1.025 0.001 0.000 -0.009 -0.000
457 4 12.248 0.796 0.821 0.011 -0.003 -0.002 0.000
458 4 11.916 3.393 2.984 -0.000 -0.002 0.014 -0.000
459 4 13.991 0.847 2.678 0.005 -0.005 -0.002 -0.000
460 4 13.649 2.933 0.620 0.000 -0.001 -0.010 0.000
483 4 -1.079 4.807 2.582 0.010 -0.007 -0.005 0.000
484 4 -0.758 6.409 0.509 -0.005 -0.007 0.005 0.000
485 4 0.940 4.739 0.901 -0.008 -0.003 0.003 0.000
486 4 0.714 6.360 2.642 0.001 0.001 -0.005 0.000
487 4 2.694 4.725 2.634 0.004 -0.002 -0.001 0.000
488 4 3.045 7.010 0.613 -0.003 -0.005 -0.000 0.000
489 4 4.118 4.529 0.633 0.008 -0.001 0.001 0.000
490 4 4.334 6.491 2.760 0.005 0.004 0.002 0.000
491 4 6.160 4.871 2.535 0.001 -0.006 0.000 0.000
492 4 5.897 6.797 0.944 -0.003 -0.002 -0.006 0.000
493 4 8.184 4.767 0.585 -0.006 0.006 -0.003 -0.000
494 4 8.441 6.546 2.550 0.001 0.000 0.001 -0.000
495 4 10.037 4.969 2.570 0.005 -0.005 -0.010 -0.000
496 4 10.066 6.716 0.728 0.002 0.003 0.007 -0.000
497 4 11.948 5.138 0.839 0.013 0.001 -0.007 -0.000
498 4 12.333 6.969 2.897 -0.007 0.002 0.009 0.000
499 4 14.011 5.008 2.553 -0.006 0.002 0.001 0.000
500 4 13.674 7.141 0.614 -0.004 0.009 -0.012 0.000
523 4 -0.903 8.731 2.721 0.008 -0.005 -0.004 0.000
524 4 -1.188 10.730 0.853 -0.008 0.001 -0.000 0.000
525 4 0.517 8.731 0.621 0.002 -0.004 0.004 0.000
526 4 0.694 10.658 2.788 0.002 -0.000 -0.004 0.000
527 4 2.555 8.756 3.071 0.007 0.002 -0.001 0.000
528 4 2.496 10.719 0.822 -0.002 0.004 0.002 0.000
529 4 4.503 8.910 1.115 0.004 -0.004 0.004 0.000
530 4 4.133 10.872 2.767 -0.001 -0.002 0.002 0.000
531 4 6.572 8.491 2.761 0.001 0.005 0.012 0.000
532 4 6.446 10.753 0.967 0.001 0.001 0.006 0.000
533 4 8.195 8.471 0.928 -0.000 0.004 0.002 0.000
534 4 8.200 10.592 2.816 -0.005 0.003 0.001 0.000
535 4 10.107 8.467 2.721 -0.000 0.003 -0.008 -0.000
536 4 9.835 10.846 0.631 0.003 0.001 0.005 -0.000
537 4 12.122 8.978 1.200 -0.007 -0.001 -0.002 0.000
538 4 12.021 10.606 2.823 -0.010 -0.001 0.008 -0.000
539 4 14.013 8.701 2.845 0.007 -0.005 0.005 0.000
540 4 14.759 10.383 1.105 0.005 0.004 0.003 0.000
563 4 -1.142 12.387 2.369 -0.005 -0.003 0.005 0.000
564 4 -1.268 14.309 0.661 -0.011 -0.006 0.006 0.000
565 4 1.202 12.814 0.915 0.006 0.007 -0.005 -0.000
566 4 0.531 14.479 2.472 0.003 -0.006 0.006 -0.000
567 4 2.678 12.854 2.637 0.004 -0.010 -0.005 -0.000
568 4 2.717 14.927 0.745 0.002 -0.000 0.006 -0.000
569 4 4.569 12.339 0.714 -0.008 -0.001 0.001 0.000
570 4 4.728 14.662 2.556 0.006 -0.002 0.018 -0.000
571 4 6.176 12.592 2.533 0.004 -0.017 -0.004 0.000
572 4 6.553 13.995 0.539 0.007 0.004 -0.004 0.000
573 4 8.399 12.338 0.664 -0.000 -0.005 -0.000 0.000
574 4 8.434 14.302 2.699 -0.003 0.005 0.011 0.000
575 4 10.649 12.435 2.946 -0.009 0.002 0.003 0.000
576 4 10.333 14.209 0.866 -0.005 0.001 -0.003 -0.000
577 4 12.120 12.353 1.189 -0.002 0.000 0.004 -0.000
578 4 12.020 14.609 3.144 0.001 -0.003 -0.001 -0.000
579 4 14.153 12.520 3.073 -0.004 -0.002 0.009 -0.000
580 4 13.806 14.355 1.324 0.002 -0.005 0.007 -0.000
804 4 -0.760 -1.025 4.854 -0.000 0.003 0.001 -0.000
806 4 0.348 -0.949 6.877 -0.001 -0.002 0.008 -0.000
808 4 2.272 -0.605 4.778 0.005 -0.003 0.003 -0.000
810 4 4.490 -0.727 6.719 0.009 0.001 0.010 -0.000
812 4 6.966 -0.950 4.309 0.008 -0.005 -0.010 -0.000
814 4 8.515 -0.512 6.634 -0.006 0.014 0.005 -0.000
816 4 9.921 -0.923 4.486 -0.004 0.007 -0.000 -0.000
818 4 11.602 -0.630 6.491 0.009 0.000 -0.000 -0.000
820 4 13.897 -0.820 4.717 0.000 -0.005 0.012 -0.000
843 4 -1.239 1.133 6.854 -0.004 0.002 -0.002 0.000
844 4 -1.394 2.704 4.843 -0.000 0.011 0.005 0.000
845 4 0.658 1.431 5.047 -0.004 -0.011 0.005 0.000
846 4 0.441 3.163 6.739 0.004 0.002 0.002 0.000
847 4 2.497 1.157 6.686 -0.006 -0.006 -0.007 0.000
848 4 2.673 3.059 4.362 0.004 -0.007 -0.006 -0.000
849 4 4.712 0.829 4.474 -0.001 0.003 0.007 0.000
850 4 4.460 3.196 6.706 0.007 -0.001 0.002 -0.000
851 4 6.542 1.219 6.727 -0.011 0.006 -0.004 0.000
852 4 6.605 3.003 4.692 0.000 -0.008 -0.004 0.000
853 4 8.417 1.235 4.999 0.003 -0.001 -0.009 0.000
854 4 8.714 3.523 6.750 0.004 -0.002 0.000 0.000
855 4 10.180 1.586 7.058 0.004 0.003 -0.003 0.000
856 4 10.009 3.352 4.750 0.004 0.000 -0.004 0.000
857 4 11.681 1.095 4.632 0.000 0.005 0.004 -0.000
858 4 12.258 3.120 5.887 -0.014 0.003 -0.002 0.000
859 4 14.418 1.075 6.538 0.005 0.010 -0.008 0.000
860 4 14.339 3.253 4.608 -0.004 0.001 0.001 0.000
883 4 -1.324 4.856 6.900 -0.001 0.006 0.005 0.000
884 4 -1.303 6.861 4.478 0.003 -0.001 -0.001 0.000
885 4 0.530 4.591 4.518 0.001 0.007 0.005 0.000
886 4 0.216 6.680 6.550 -0.005 -0.001 0.001 0.000
887 4 2.342 5.130 6.502 0.004 -0.006 -0.002 0.000
888 4 2.395 6.563 4.783 -0.004 0.009 -0.007 0.000
889 4 4.490 4.971 4.571 -0.006 0.002 0.003 -0.000
890 4 4.621 6.294 6.910 -0.001 0.003 0.006 -0.000
891 4 6.239 5.087 6.513 0.001 0.007 -0.007 0.000
892 4 6.800 6.691 4.808 0.003 -0.006 0.007 -0.000
893 4 8.243 4.841 4.471 -0.003 0.012 -0.002 -0.000
894 4 8.374 6.683 6.859 0.005 -0.000 -0.003 -0.000
895 4 10.776 4.982 6.724 -0.001 -0.004 0.005 -0.000
896 4 10.131 6.605 4.672 0.002 0.001 0.002 -0.000
897 4 12.481 5.395 4.460 -0.006 0.006 -0.002 -0.000
898 4 12.117 7.161 6.468 0.004 0.006 -0.002 -0.000
899 4 14.058 4.957 6.496 -0.014 -0.002 0.006 -0.000
900 4 14.162 7.040 4.833 -0.002 -0.006 0.001 -0.000
923 4 -0.866 8.639 6.996 -0.008 0.007 -0.002 0.000
924 4 -1.133 11.083 4.604 -0.005 -0.012 0.004 0.000
925 4 0.320 8.587 4.845 -0.007 0.005 0.000 0.000
926 4 0.685 10.826 6.342 0.013 -0.002 -0.007 0.000
927 4 2.647 8.390 6.664 -0.000 -0.001 -0.001 0.000
928 4 2.411 10.539 4.721 0.006 0.000 -0.007 0.000
929 4 4.424 8.396 5.050 -0.007 0.011 0.001 0.000
930 4 4.735 10.767 6.615 0.004 -0.008 -0.006 0.000
931 4 6.589 8.432 6.565 -0.003 0.011 0.003 0.000
932 4 6.184 10.505 4.512 -0.007 -0.001 0.004 0.000
933 4 8.317 8.802 4.700 0.000 0.012 0.007 -0.000
934 4 8.141 10.877 6.647 0.003 -0.003 -0.003 -0.000
935 4 9.879 8.844 6.568 0.013 0.010 -0.002 -0.000
936 4 9.951 10.886 4.756 0.004 -0.001 0.013 -0.000
937 4 12.091 8.696 4.638 -0.006 -0.004 0.004 -0.000
938 4 12.514 10.479 6.578 0.000 0.007 0.006 -0.000
939 4 14.358 8.619 6.719 0.014 0.006 0.003 0.000
940 4 14.346 10.232 4.687 -0.004 0.005 0.005 0.000
963 4 -1.206 12.797 6.657 0.003 -0.011 -0.002 0.000
964 4 -1.434 14.108 4.536 -0.004 0.002 0.003 0.000
965 4 1.003 12.951 4.089 0.014 0.006 -0.009 -0.000
966 4 0.745 14.473 6.077 -0.009 -0.004 0.003 -0.000
967 4 2.484 12.711 6.829 0.004 0.002 0.001 -0.000
968 4 2.442 14.895 4.310 0.013 0.014 0.013 -0.000
969 4 4.089 12.761 4.844 -0.002 -0.014 0.006 -0.000
970 4 4.366 14.560 6.644 -0.002 0.002 0.004 -0.000
971 4 6.327 12.923 6.272 -0.010 0.000 -0.010 0.000
972 4 6.192 14.237 4.458 -0.007 0.006 0.004 0.000
973 4 7.987 12.327 4.550 0.001 -0.002 -0.003 0.000
974 4 8.700 14.381 6.639 0.002 0.007 -0.010 0.000
975 4 10.240 12.365 6.664 0.012 -0.006 -0.001 0.000
976 4 10.117 13.958 4.817 -0.006 0.009 0.003 0.000
977 4 12.131 12.430 4.888 0.007 0.003 -0.003 -0.000
978 4 12.129 14.509 6.768 -0.001 0.009 0.004 -0.000
979 4 14.027 12.749 7.214 -0.001 0.005 0.007 0.000
980 4 13.932 14.287 5.257 -0.004 -0.003 -0.012 -0.000
1204 4 -1.164 -0.949 8.600 0.005 0.006 0.002 0.000
1206 4 0.513 -1.153 10.334 0.005 -0.005 -0.002 0.000
1208 4 2.683 -0.916 8.795 0.001 0.010 -0.005 0.000
1210 4 4.976 -1.092 10.433 0.005 0.003 0.002 -0.000
1212 4 6.714 -0.619 8.196 0.005 0.006 0.001 -0.000
1214 4 8.379 -0.904 10.579 -0.001 -0.002 -0.000 0.000
1216 4 9.731 -0.653 8.474 -0.001 0.010 -0.001 -0.000
1218 4 12.460 -1.034 10.171 -0.003 -0.002 0.001 -0.000
1220 4 13.753 -1.020 8.081 0.007 0.004 0.010 -0.000
1243 4 -1.371 0.846 10.928 0.003 0.001 -0.002 0.000
1244 4 -1.632 3.092 8.725 0.005 -0.006 -0.001 -0.000
1245 4 0.318 1.264 8.887 0.003 -0.009 -0.006 0.000
1246 4 0.183 3.145 10.608 0.004 0.006 -0.002 0.000
1247 4 2.755 1.193 10.330 -0.003 -0.001 -0.005 0.000
1248 4 2.485 3.345 8.558 -0.001 -0.007 0.005 0.000
1249 4 4.513 1.289 9.086 0.001 -0.001 -0.004 0.000
1250 4 4.337 3.107 10.704 0.006 -0.004 -0.010 0.000
1251 4 6.745 0.881 10.945 -0.003 0.005 -0.000 -0.000
1252 4 6.439 3.160 8.414 -0.006 0.004 -0.007 0.000
1253 4 8.523 1.398 8.888 0.007 0.004 -0.001 0.000
1254 4 8.192 3.251 10.679 -0.005 -0.010 0.011 0.000
1255 4 10.211 1.074 10.426 0.001 0.001 -0.004 0.000
1256 4 10.356 3.095 8.772 0.006 0.010 0.004 0.000
1257 4 12.035 1.268 8.474 0.008 -0.002 0.000 -0.000
1258 4 12.305 3.221 10.617 -0.000 0.006 -0.002 -0.000
1259 4 13.497 1.010 10.279 0.005 -0.008 0.014 -0.000
1260 4 13.883 3.204 8.149 0.012 -0.011 -0.006 -0.000
1283 4 -1.630 4.969 10.611 0.002 -0.007 0.002 -0.000
1284 4 -1.544 6.587 8.672 0.005 -0.001 -0.002 -0.000
1285 4 0.508 5.202 8.789 0.008 -0.011 0.006 0.000
1286 4 0.611 6.941 10.419 0.002 0.001 -0.013 -0.000
1287 4 2.541 5.359 11.345 0.002 -0.003 -0.013 0.000
1288 4 2.931 6.170 9.092 0.001 -0.014 -0.001 -0.000
1289 4 4.917 4.622 8.862 -0.007 0.001 -0.005 -0.000
1290 4 4.558 6.782 10.714 -0.008 -0.001 0.006 -0.000
1291 4 6.324 4.920 10.690 0.002 -0.000 -0.000 0.000
1292 4 6.502 6.743 8.750 0.008 0.010 -0.016 0.000
1293 4 8.058 4.742 8.834 -0.002 -0.003 -0.003 0.000
1294 4 8.211 7.052 10.409 -0.005 -0.009 -0.009 -0.000
1295 4 10.198 5.269 10.393 0.003 -0.004 0.003 -0.000
1296 4 10.548 7.139 8.446 0.005 0.001 0.007 -0.000
1297 4 12.236 5.040 8.584 -0.003 -0.001 -0.004 -0.000
1298 4 12.376 7.064 10.591 -0.008 -0.003 -0.007 -0.000
1299 4 14.124 5.044 10.412 -0.000 -0.012 -0.007 -0.000
1300 4 14.094 6.870 8.590 0.003 -0.005 0.006 -0.000
1323 4 -1.284 8.814 10.247 0.002 -0.001 -0.001 -0.000
1324 4 -1.366 10.909 8.198 0.007 -0.003 0.003 0.000
1325 4 0.922 9.065 8.681 0.008 0.000 0.010 0.000
1326 4 1.398 10.782 10.625 -0.012 0.009 -0.013 -0.000
1327 4 2.680 8.724 10.201 0.003 0.004 -0.000 -0.000
1328 4 3.057 10.821 8.607 0.000 0.012 0.001 0.000
1329 4 4.531 8.692 8.173 0.000 0.004 -0.007 -0.000
1330 4 4.590 10.554 10.623 0.008 -0.003 0.000 -0.000
1331 4 6.310 8.429 10.552 0.008 -0.001 0.001 0.000
1332 4 6.149 10.313 8.545 0.001 -0.003 0.013 0.000
1333 4 7.902 8.957 8.623 0.004 0.006 0.004 0.000
1334 4 8.260 10.566 10.287 0.008 0.006 0.005 0.000
1335 4 10.120 8.709 10.137 -0.018 -0.005 0.009 -0.000
1336 4 10.339 10.563 8.517 -0.002 -0.002 -0.007 -0.000
1337 4 12.145 8.713 8.665 0.007 -0.001 -0.008 -0.000
1338 4 11.949 10.215 10.684 0.006 -0.003 -0.004 0.000
1339 4 14.026 9.046 10.619 -0.001 -0.004 -0.003 0.000
1340 4 13.965 10.319 8.715 -0.002 -0.003 0.005 0.000
1363 4 -1.348 12.582 10.198 -0.003 -0.011 0.001 -0.000
1364 4 -1.193 14.144 8.404 -0.003 -0.011 -0.008 0.000
1365 4 0.827 11.927 8.497 0.004 -0.000 -0.003 0.000
1366 4 0.569 14.235 10.929 -0.008 -0.006 0.001 -0.000
1367 4 2.829 12.728 10.694 0.006 0.001 -0.003 -0.000
1368 4 2.083 14.207 8.571 -0.005 -0.003 -0.003 -0.000
1369 4 4.561 12.781 8.787 -0.003 -0.006 -0.014 0.000
1370 4 4.548 14.556 10.821 0.002 0.005 0.001 0.000
1371 4 6.338 12.614 10.936 0.003 -0.005 -0.005 0.000
1372 4 6.158 14.524 8.402 0.002 -0.000 -0.002 -0.000
1373 4 8.217 12.383 8.651 0.001 -0.005 -0.003 0.000
1374 4 8.492 14.027 10.684 -0.007 -0.003 -0.001 -0.000
1375 4 10.383 12.237 10.509 0.001 -0.003 0.009 0.000
1376 4 10.359 14.168 8.791 -0.002 0.004 0.001 -0.000
1377 4 12.351 12.273 8.926 0.000 -0.012 -0.010 0.000
1378 4 12.267 14.227 10.489 0.002 0.001 0.009 -0.000
1379 4 14.161 12.239 10.493 -0.003 -0.002 0.005 0.000
1380 4 14.606 14.154 9.013 0.000 -0.010 -0.002 -0.000
1604 4 -1.116 -1.391 12.273 -0.003 -0.004 -0.002 0.000
1606 4 0.599 -0.691 14.050 0.001 -0.003 -0.003 0.000
1608 4 3.216 -1.084 12.554 -0.006 0.001 -0.001 -0.000
1610 4 4.659 -0.958 14.183 0.000 -0.004 -0.004 -0.000
1612 4 6.327 -1.082 12.530 0.010 -0.002 0.001 -0.000
1614 4 8.316 -1.219 14.443 -0.008 0.002 0.012 0.000
1616 4 10.622 -1.103 12.464 -0.008 -0.000 -0.012 0.000
1618 4 12.438 -0.740 14.506 0.001 0.006 -0.001 0.000
1620 4 14.246 -0.646 12.274 -0.003 0.015 -0.004 -0.000
1643 4 -0.783 1.342 14.566 0.011 0.001 0.005 -0.000
1644 4 -1.069 2.775 12.582 0.001 0.002 -0.002 -0.000
1645 4 0.826 0.950 12.121 -0.004 0.007 -0.003 0.000
1646 4 0.674 3.235 13.914 -0.005 -0.000 -0.000 0.000
1647 4 2.736 1.301 13.985 -0.008 0.001 0.001 -0.000
1648 4 2.747 2.969 12.509 0.008 0.006 0.015 0.000
1649 4 4.603 0.933 12.373 -0.006 0.007 0.005 -0.000
1650 4 5.058 2.793 14.248 0.001 0.002 0.009 -0.000
1651 4 6.799 0.903 13.847 0.001 0.006 -0.011 -0.000
1652 4 6.809 3.061 12.473 0.000 -0.007 0.002 -0.000
1653 4 8.717 1.201 12.586 0.012 0.007 -0.004 -0.000
1654 4 8.780 3.275 14.165 -0.006 0.003 -0.001 0.000
1655 4 10.530 0.931 14.486 0.006 0.002 0.002 0.000
1656 4 10.316 3.453 12.238 0.007 -0.004 -0.004 -0.000
1657 4 11.806 0.878 12.310 0.003 -0.009 -0.000 0.000
1658 4 12.198 3.111 14.115 -0.002 -0.002 0.001 0.000
1659 4 14.153 1.381 13.905 0.002 -0.013 -0.011 0.000
1660 4 14.065 3.093 12.322 -0.004 0.001 -0.002 -0.000
1683 4 -1.324 4.736 14.332 0.006 -0.004 -0.001 -0.000
1684 4 -1.458 7.065 12.076 -0.001 0.009 0.006 -0.000
1685 4 0.245 5.523 12.645 0.007 -0.001 0.002 0.000
1686 4 0.713 7.373 14.537 0.009 0.000 -0.008 0.000
1687 4 2.791 5.333 13.992 -0.003 -0.000 -0.000 0.000
1688 4 2.456 7.562 12.454 -0.004 0.011 0.003 -0.000
1689 4 4.790 4.973 12.617 -0.004 0.006 0.002 -0.000
1690 4 4.663 6.758 14.433 -0.004 -0.009 -0.007 0.000
1691 4 6.672 4.858 14.225 0.003 0.010 0.009 0.000
1692 4 6.443 6.905 12.540 -0.010 -0.000 0.004 0.000
1693 4 8.281 5.332 12.253 0.006 -0.014 -0.004 0.000
1694 4 8.428 6.453 14.453 0.005 0.011 -0.002 0.000
1695 4 10.357 5.120 14.263 0.004 0.005 0.012 -0.000
1696 4 10.324 6.942 12.264 -0.003 -0.005 -0.005 -0.000
1697 4 12.175 4.925 12.185 -0.000 0.008 -0.004 -0.000
1698 4 12.159 6.834 14.507 0.002 -0.009 0.003 -0.000
1699 4 14.019 4.916 13.980 -0.000 0.007 0.010 -0.000
1700 4 14.096 6.719 12.526 0.002 -0.002 0.003 0.000
1723 4 -1.395 8.759 14.261 -0.003 0.004 -0.006 -0.000
1724 4 -1.131 10.701 12.376 -0.001 0.004 0.001 -0.000
1725 4 0.505 8.941 11.884 0.002 -0.004 0.010 -0.000
1726 4 0.945 10.263 14.538 0.002 -0.002 -0.004 -0.000
1727 4 3.127 8.773 14.225 0.009 0.002 -0.002 -0.000
1728 4 2.958 10.559 12.524 -0.004 -0.005 -0.005 -0.000
1729 4 4.655 8.658 12.305 -0.005 -0.006 0.001 -0.000
1730 4 4.918 10.457 14.473 0.008 -0.013 -0.002 -0.000
1731 4 6.465 8.510 14.601 -0.003 -0.002 0.007 -0.000
1732 4 6.571 10.279 12.277 0.002 -0.006 -0.009 -0.000
1733 4 8.388 8.783 12.634 0.004 0.007 -0.008 0.000
1734 4 8.224 10.525 14.542 -0.014 -0.007 -0.004 -0.000
1735 4 10.362 8.473 14.372 0.009 0.002 -0.002 -0.000
1736 4 10.515 10.201 12.528 -0.001 0.003 -0.013 0.000
1737 4 12.219 8.562 12.376 0.000 -0.003 0.000 -0.000
1738 4 12.407 10.310 14.494 0.001 0.004 -0.012 0.000
1739 4 14.260 8.591 14.382 0.002 0.005 0.002 0.000
1740 4 14.339 10.712 12.684 -0.004 0.001 -0.009 0.000
1763 4 -0.935 12.299 14.093 0.003 -0.007 0.005 -0.000
1764 4 -1.381 14.395 12.545 -0.006 -0.006 -0.007 -0.000
1765 4 1.122 12.455 12.851 -0.008 0.002 0.012 -0.000
1766 4 0.708 14.174 14.658 0.005 0.007 0.005 -0.000
1767 4 3.123 12.153 14.557 -0.009 0.007 0.006 -0.000
1768 4 2.669 13.969 12.812 0.004 -0.004 0.006 0.000
1769 4 4.421 12.449 12.547 0.013 0.007 -0.006 0.000
1770 4 4.488 14.552 14.422 0.004 0.004 -0.004 0.000
1771 4 6.844 12.214 14.180 -0.003 -0.008 -0.001 0.000
1772 4 6.472 14.059 12.654 0.009 -0.001 0.010 0.000
1773 4 8.603 12.229 12.538 0.000 -0.005 0.002 0.000
1774 4 8.508 14.088 14.175 -0.006 0.005 -0.001 0.000
1775 4 10.372 12.079 14.218 0.002 -0.005 -0.005 -0.000
1776 4 10.338 13.981 12.395 -0.004 -0.009 -0.014 0.000
1777 4 12.087 12.038 12.250 -0.003 0.002 0.007 0.000
1778 4 12.225 14.256 14.406 0.008 0.012 -0.013 -0.000
1779 4 14.286 12.382 14.387 -0.001 -0.004 0.005 0.000
1780 4 14.408 13.750 12.307 -0.003 0.007 0.008 0.000
2004 4 -1.470 -0.747 16.260 -0.013 -0.003 0.005 0.000
2006 4 0.336 -1.412 18.136 0.000 0.007 0.002 -0.000
2008 4 2.791 -1.012 15.840 -0.008 -0.012 0.008 0.000
2010 4 5.021 -0.948 18.097 0.003 -0.007 0.010 0.000
2012 4 6.600 -0.692 16.072 0.007 0.004 0.002 0.000
2014 4 7.983 -0.914 17.963 0.001 -0.001 -0.004 0.000
2016 4 10.175 -0.976 16.348 -0.001 0.009 0.016 0.000
2018 4 12.162 -0.817 17.685 -0.010 -0.002 -0.008 -0.000
2020 4 14.360 -0.961 16.182 0.001 0.010 -0.000 -0.000
2043 4 -1.239 1.125 18.276 0.011 0.001 -0.004 -0.000
2044 4 -1.006 2.752 16.253 -0.004 0.005 -0.002 -0.000
2045 4 1.254 1.329 15.778 -0.011 -0.004 0.001 0.000
2046 4 0.843 3.389 17.939 -0.003 -0.007 0.005 -0.000
2047 4 2.919 0.501 17.725 -0.004 -0.004 0.005 0.000
2048 4 2.779 3.409 16.096 0.002 -0.003 -0.004 0.000
2049 4 4.819 1.058 15.806 -0.003 -0.001 -0.010 0.000
2050 4 4.506 3.146 18.039 0.004 -0.004 -0.003 -0.000
2051 4 6.663 1.510 17.963 0.002 0.003 -0.001 -0.000
2052 4 6.554 3.182 16.067 -0.010 -0.001 -0.003 0.000
2053 4 8.372 1.404 16.148 0.005 -0.000 -0.001 -0.000
2054 4 8.328 2.962 18.184 -0.001 -0.009 0.003 -0.000
2055 4 9.926 0.892 17.975 -0.005 -0.000 -0.004 0.000
2056 4 10.561 2.800 16.302 0.001 -0.003 -0.001 0.000
2057 4 12.625 1.220 16.314 0.003 -0.001 -0.002 0.000
2058 4 12.362 3.077 18.133 -0.008 -0.008 -0.003 -0.000
2059 4 14.102 1.004 18.300 -0.005 0.002 0.006 0.000
2060 4 14.145 3.177 16.040 -0.012 -0.012 0.008 0.000
2083 4 -1.202 4.884 18.396 0.000 -0.008 0.003 -0.000
2084 4 -1.348 6.871 16.175 -0.006 0.000 -0.004 0.000
2085 4 0.474 4.768 16.134 -0.000 -0.008 -0.001 0.000
2086 4 0.641 6.920 18.345 0.000 -0.011 -0.008 -0.000
2087 4 2.540 5.166 17.943 -0.002 0.005 0.008 0.000
2088 4 2.404 6.828 16.195 0.002 -0.006 0.007 0.000
2089 4 4.699 5.062 15.904 0.006 -0.001 -0.000 0.000
2090 4 4.326 7.210 18.278 0.005 -0.013 -0.003 0.000
2091 4 6.318 4.730 18.286 -0.003 0.011 0.002 -0.000
2092 4 6.723 6.688 16.347 0.010 0.004 -0.000 0.000
2093 4 8.462 4.921 16.149 -0.000 0.002 0.001 0.000
2094 4 8.347 6.729 18.156 -0.002 -0.002 0.001 0.000
2095 4 10.379 5.051 18.308 0.000 -0.003 0.011 0.000
2096 4 10.241 6.804 16.396 -0.003 0.007 -0.003 0.000
2097 4 12.494 5.203 16.025 0.005 -0.002 -0.002 0.000
2098 4 12.310 6.583 18.247 -0.002 0.005 0.001 -0.000
2099 4 14.246 4.927 18.234 -0.003 -0.003 -0.002 -0.000
2100 4 14.288 6.761 16.065 0.000 -0.009 0.009 -0.000
2123 4 -1.460 9.008 18.561 0.008 0.004 -0.006 -0.000
2124 4 -1.431 10.623 16.289 0.000 0.010 -0.006 0.000
2125 4 0.358 8.889 16.472 -0.004 0.000 -0.017 0.000
2126 4 0.569 10.763 18.442 0.000 -0.003 -0.005 0.000
2127 4 2.252 8.716 17.841 -0.009 0.007 -0.001 -0.000
2128 4 2.868 10.800 16.378 -0.006 -0.004 -0.003 0.000
2129 4 4.675 9.008 16.621 -0.003 0.002 -0.006 -0.000
2130 4 4.806 10.331 18.313 -0.001 0.006 0.001 -0.000
2131 4 6.282 8.526 18.565 0.007 -0.002 0.001 -0.000
2132 4 6.842 10.223 16.672 -0.014 -0.002 -0.003 -0.000
2133 4 8.406 8.510 16.313 0.000 -0.004 0.004 -0.000
2134 4 8.650 10.261 18.225 -0.010 -0.001 0.005 -0.000
2135 4 10.366 8.365 18.296 0.003 0.019 0.004 0.000
2136 4 10.361 10.289 16.198 -0.005 -0.006 0.000 -0.000
2137 4 12.278 8.225 16.290 -0.002 0.006 0.000 -0.000
2138 4 12.290 10.588 18.194 0.009 0.008 -0.001 0.000
2139 4 13.930 8.509 17.968 -0.001 0.010 0.008 -0.000
2140 4 14.413 10.300 16.273 0.008 0.004 0.005 0.000
2163 4 -1.257 12.321 18.142 -0.005 0.006 0.018 0.000
2164 4 -1.133 14.271 16.242 0.005 -0.001 -0.004 0.000
2165 4 0.943 12.161 15.889 -0.003 0.008 0.007 0.000
2166 4 0.550 14.148 18.299 0.004 -0.007 -0.006 0.000
2167 4 2.488 12.551 18.141 -0.000 -0.004 -0.004 0.000
2168 4 2.759 14.042 16.274 -0.003 0.009 0.008 0.000
2169 4 4.929 12.039 16.393 -0.010 -0.013 0.003 0.000
2170 4 4.807 14.101 18.150 0.012 0.002 -0.003 0.000
2171 4 6.575 12.313 18.259 -0.002 -0.000 0.010 0.000
2172 4 6.797 14.266 16.224 -0.001 0.005 -0.006 0.000
2173 4 8.485 12.361 16.428 -0.004 0.003 0.006 0.000
2174 4 8.760 14.315 18.107 -0.001 0.006 -0.001 0.000
2175 4 10.715 12.734 18.135 -0.004 0.007 0.003 0.000
2176 4 10.169 14.770 16.146 -0.002 -0.006 -0.003 0.000
2177 4 12.142 12.488 15.914 0.010 0.001 -0.007 0.000
2178 4 12.349 14.152 17.623 0.001 -0.001 -0.008 -0.000
2179 4 14.158 12.829 18.078 -0.008 -0.007 0.004 0.000
2180 4 14.142 14.369 16.132 0.000 0.003 -0.002 -0.000
2404 4 -1.209 -0.780 19.966 -0.001 0.000 -0.000 -0.000
2408 4 2.814 -0.972 20.170 0.000 -0.006 0.003 -0.000
2412 4 6.629 -0.647 19.791 0.006 0.001 -0.004 0.000
2416 4 10.203 -0.654 19.691 0.001 -0.004 0.003 -0.000
2420 4 13.985 -0.726 20.580 0.005 -0.005 0.001 -0.000
2444 4 -0.737 2.946 20.295 -0.005 0.005 -0.001 -0.000
2445 4 0.915 0.625 19.608 0.004 -0.015 -0.001 -0.000
2448 4 2.782 2.639 19.986 0.010 0.010 0.009 -0.000
2449 4 4.656 1.051 19.850 0.002 -0.000 -0.004 -0.000
2452 4 6.452 2.962 20.019 -0.007 0.001 0.007 -0.000
2453 4 8.159 1.361 19.977 -0.009 0.009 -0.008 -0.000
2456 4 10.326 3.219 20.155 0.006 0.001 -0.006 -0.000
2457 4 12.130 0.979 19.729 0.007 -0.006 0.001 -0.000
2460 4 14.227 3.220 19.747 -0.007 0.001 0.001 -0.000
2484 4 -0.970 6.662 20.189 -0.002 0.002 0.001 -0.000
2485 4 0.968 4.715 19.900 -0.004 -0.003 -0.007 -0.000
2488 4 2.203 7.293 20.095 -0.009 -0.012 0.003 0.000
2489 4 4.391 5.233 20.036 0.001 -0.004 0.004 0.000
2492 4 6.226 6.990 20.054 -0.002 -0.002 -0.002 -0.000
2493 4 8.109 5.105 20.254 -0.001 -0.011 -0.007 -0.000
2496 4 10.378 6.589 20.396 -0.001 0.004 -0.003 0.000
2497 4 12.353 4.713 19.995 0.002 -0.006 -0.003 0.000
2500 4 14.378 6.166 20.451 -0.007 0.006 0.003 -0.000
2524 4 -1.231 11.035 20.474 0.002 0.009 -0.011 -0.000
2525 4 0.425 8.794 20.206 0.008 0.011 0.001 -0.000
2528 4 2.369 10.513 19.785 0.008 0.008 0.009 -0.000
2529 4 4.645 8.867 20.313 0.007 0.008 -0.015 0.000
2532 4 6.926 10.501 19.848 -0.004 -0.002 -0.006 -0.000
2533 4 8.436 8.335 20.209 0.003 0.001 0.001 -0.000
2536 4 10.133 10.584 20.252 -0.006 -0.011 0.002 0.000
2537 4 12.363 9.061 20.255 0.005 0.004 -0.004 0.000
2540 4 14.149 10.435 19.871 -0.007 0.001 -0.001 -0.000
2564 4 -1.431 14.217 19.459 0.010 -0.003 -0.005 0.000
2565 4 0.610 12.561 20.217 -0.007 -0.001 0.002 0.000
2568 4 2.512 14.216 20.193 0.005 0.003 0.003 0.000
2569 4 4.412 12.272 20.141 -0.009 -0.001 -0.006 0.000
2572 4 6.834 14.081 19.841 -0.004 -0.006 -0.008 0.000
2573 4 8.513 12.291 19.921 -0.009 0.009 0.001 0.000
2576 4 10.647 14.084 19.899 0.009 0.002 -0.008 0.000
2577 4 12.369 12.572 19.678 0.002 -0.003 -0.003 0.000
2580 4 14.169 14.170 20.306 0.001 0.004 0.005 -0.000
2486 4 0.908 6.822 22.217 -0.009 0.011 -0.002 -0.000
2491 4 6.208 4.923 21.520 0.003 0.000 -0.007 -0.000
2539 4 14.430 8.503 22.196 -0.002 0.002 0.004 -0.000
2459 4 14.204 1.461 22.144 0.006 -0.001 0.003 0.000
2498 4 12.300 6.945 21.723 -0.000 -0.005 -0.011 0.000
2527 4 2.834 9.313 21.748 0.003 -0.001 -0.001 -0.000
2406 4 0.648 -0.905 21.955 -0.002 0.003 -0.001 -0.000
2499 4 14.138 4.297 22.003 0.007 0.002 -0.002 -0.000
2574 4 8.422 14.499 22.048 -0.003 0.002 -0.010 0.000
2566 4 0.619 14.602 21.962 0.008 0.012 -0.004 -0.000
2570 4 4.556 14.235 21.864 -0.001 0.004 0.014 -0.000
2458 4 12.015 2.586 21.786 0.006 0.008 0.008 -0.000
2538 4 12.077 11.078 22.084 0.008 -0.003 0.001 0.000
2455 4 10.231 1.204 21.658 0.002 -0.001 0.000 -0.000
2575 4 10.123 12.487 21.961 -0.007 0.005 -0.005 0.000
2579 4 14.465 12.280 21.965 -0.007 0.005 0.005 -0.000
2531 4 6.702 8.852 21.769 -0.003 0.001 -0.000 -0.000
2494 4 8.365 6.645 22.016 0.005 -0.009 0.006 -0.000
2535 4 10.253 8.687 21.828 0.009 -0.006 0.004 -0.000
2495 4 10.227 4.857 22.179 0.002 0.001 0.002 0.000
2454 4 8.245 3.286 22.116 -0.013 0.005 -0.003 -0.000
2451 4 6.043 0.914 21.813 -0.000 -0.010 0.003 -0.000
2483 4 -0.886 5.105 22.187 -0.010 0.004 -0.004 -0.000
2447 4 3.410 1.011 21.964 0.002 -0.005 -0.001 0.000
2530 4 4.869 10.812 22.033 0.005 -0.004 -0.002 -0.000
2487 4 2.295 4.860 22.135 -0.012 0.015 0.005 0.000
2410 4 4.596 -1.238 21.688 -0.008 0.009 -0.002 -0.000
2563 4 -1.513 12.576 21.823 0.013 0.013 0.006 0.000
2567 4 2.723 12.647 22.090 0.008 -0.005 -0.007 -0.000
2418 4 11.717 -0.550 21.956 -0.004 -0.009 0.007 -0.000
2526 4 0.542 10.674 22.049 -0.000 -0.006 -0.001 -0.000
2523 4 -1.167 8.400 22.154 0.001 0.009 -0.004 -0.000
2578 4 12.255 14.246 22.002 0.001 -0.007 -0.005 0.000
2450 4 4.360 3.255 21.565 0.006 -0.002 -0.005 -0.000
2490 4 3.887 6.837 21.667 -0.000 -0.006 -0.002 0.000
2414 4 8.334 -0.665 21.881 -0.006 0.003 -0.015 0.000
2534 4 8.207 10.543 22.022 0.002 -0.000 0.008 -0.000
2446 4 1.255 2.612 21.960 -0.006 -0.007 -0.003 -0.000
419 4 14.266 -2.742 2.764 0.002 -0.001 0.000 0.000
2571 4 6.564 12.549 22.071 0.002 -0.008 0.007 -0.000
1301 4 16.064 5.248 8.464 0.004 -0.006 -0.006 0.000
2013 4 8.515 -2.842 16.728 -0.000 -0.011 0.000 0.000
862 4 15.931 3.085 6.574 0.016 -0.002 -0.005 0.000
2007 4 2.905 -2.591 18.310 -0.004 -0.004 0.008 0.000
1202 4 -3.043 -0.814 10.528 -0.003 -0.013 -0.005 0.000
1261 4 15.646 1.638 8.444 0.015 -0.011 -0.010 0.000
1222 4 15.407 -1.048 10.010 0.012 -0.003 0.011 -0.000
1661 4 15.889 1.346 11.488 -0.001 -0.004 -0.001 0.000
581 4 15.923 12.483 0.970 -0.007 -0.012 0.007 -0.000
421 4 15.844 -2.652 0.938 0.001 0.001 -0.007 -0.000
2442 4 -2.914 3.060 22.170 -0.005 0.006 0.008 -0.000
1807 4 2.550 15.927 14.270 0.005 -0.003 -0.004 0.000
1417 4 12.553 16.064 8.690 0.008 0.012 -0.005 0.000
1415 4 10.480 16.082 10.734 -0.002 0.004 -0.003 0.000
1413 4 8.390 15.557 8.931 0.015 0.001 -0.007 0.000
1617 4 12.632 -2.595 12.116 0.001 0.004 0.009 0.000
1211 4 7.020 -2.939 10.146 -0.002 -0.003 -0.012 0.000
861 4 16.075 1.242 4.365 0.001 -0.003 -0.002 0.000
2209 4 4.022 16.058 16.340 -0.001 0.012 -0.010 0.000
1221 4 15.902 -2.728 8.259 -0.011 -0.008 -0.007 -0.000
1621 4 15.782 -2.440 12.208 0.001 -0.008 0.004 0.000
1607 4 2.401 -2.776 14.232 0.005 0.007 -0.003 0.000
165 4 1.167 12.342 -2.908 -0.003 0.000 -0.005 -0.000
2481 4 -2.773 4.880 20.380 0.004 0.014 0.000 0.000
821 4 15.457 -2.982 5.266 -0.006 -0.009 0.010 -0.000
2419 4 14.054 -2.728 22.105 0.008 -0.001 0.001 -0.000
2415 4 10.057 -2.978 21.881 -0.008 -0.008 0.001 0.000
62 4 16.065 2.729 -1.414 -0.001 0.004 -0.004 0.000
461 4 16.050 1.018 0.984 0.009 0.007 0.009 -0.000
422 4 15.712 -0.926 2.992 -0.001 -0.007 -0.005 -0.000
922 4 -3.035 10.760 6.580 -0.011 -0.002 -0.007 0.000
615 4 10.228 16.151 2.782 0.001 0.008 0.002 0.000
2042 4 -2.988 3.116 18.369 0.001 0.001 -0.004 0.000
1407 4 2.554 15.914 10.525 0.000 0.004 -0.009 0.000
1411 4 6.622 15.939 10.425 -0.005 0.010 0.006 0.000
1209 4 4.761 -2.798 8.330 0.003 -0.002 0.004 -0.000
3 4 -1.434 -2.790 -1.513 0.006 -0.001 -0.013 -0.000
811 4 6.908 -2.454 6.197 0.009 -0.012 -0.005 -0.000
2407 4 2.600 -2.750 22.102 0.001 -0.004 0.008 -0.000
60 4 13.890 3.133 -2.639 -0.003 0.004 -0.009 -0.000
101 4 15.820 5.033 -2.710 -0.003 0.009 0.006 0.000
82 4 -2.718 6.442 -1.150 0.000 0.004 0.000 -0.000
1405 4 0.631 16.014 9.011 -0.002 0.001 0.005 0.000
1215 4 10.253 -2.704 10.347 -0.002 0.001 -0.004 0.000
817 4 12.379 -2.920 4.552 0.009 -0.003 0.002 -0.000
2417 4 12.323 -2.661 20.256 -0.006 0.005 0.002 0.000