ITEM: TIMESTEP
8000
ITEM: NUMBER OF ATOMS
32000
ITEM: BOX BOUNDS pp pp pp
-2.955922 73.435922
-3.001391 73.481391
-3.162785 73.642785
ITEM: ATOMS id type x y z vx vy vz q
6 4 1.125 -1.192 -1.019 0.002 0.008 -0.001 0.000
10 4 4.843 -0.924 -1.172 -0.000 -0.004 -0.000 -0.000
14 4 8.970 -1.085 -0.791 -0.000 -0.003 -0.009 -0.000
18 4 12.260 -0.791 -1.244 0.001 -0.012 -0.003 0.000
43 4 -1.071 0.683 -1.098 0.000 -0.004 0.005 0.000
46 4 0.995 2.501 -1.021 0.003 -0.005 0.003 0.000
47 4 2.922 0.829 -1.223 -0.013 -0.005 -0.009 0.000
50 4 4.863 2.940 -1.275 0.002 -0.006 -0.001 0.000
51 4 7.233 0.791 -1.182 -0.001 -0.003 0.007 0.000
54 4 8.764 2.953 -1.047 0.004 0.010 0.014 0.000
55 4 10.113 0.981 -1.226 0.008 0.005 -0.008 0.000
58 4 12.058 2.220 -1.189 0.002 -0.008 -0.007 0.000
59 4 13.987 1.077 -1.190 -0.001 -0.002 0.012 -0.000
83 4 -0.988 4.688 -1.017 -0.008 -0.002 -0.002 0.000
86 4 1.026 6.361 -0.874 0.002 -0.005 -0.013 0.000
87 4 2.714 4.508 -0.951 0.009 -0.003 -0.011 0.000
90 4 4.854 5.953 -0.919 0.011 0.008 -0.001 0.000
91 4 6.935 4.560 -0.642 -0.001 0.003 -0.007 0.000
94 4 8.664 6.546 -0.829 -0.003 -0.004 0.003 -0.000
95 4 10.252 4.642 -1.307 0.015 -0.006 0.003 -0.000
98 4 12.217 6.576 -0.879 0.004 -0.013 0.001 0.000
99 4 14.040 4.707 -1.113 -0.004 0.008 0.009 -0.000
123 4 -0.695 8.243 -1.381 0.004 -0.008 -0.003 0.000
126 4 0.568 10.198 -1.027 0.004 -0.002 0.003 -0.000
127 4 2.905 8.003 -0.769 0.002 -0.002 -0.001 0.000
130 4 5.208 10.481 -1.117 0.009 0.001 0.001 0.000
131 4 6.558 8.253 -1.010 0.003 0.006 -0.002 0.000
134 4 8.258 10.044 -1.337 0.005 0.005 -0.006 -0.000
135 4 10.119 8.555 -1.059 0.002 -0.005 -0.010 0.000
138 4 12.257 10.513 -0.939 0.003 0.011 -0.001 0.000
139 4 14.240 8.181 -1.151 -0.000 0.016 0.004 -0.000
163 4 -0.963 12.118 -0.934 -0.000 0.001 0.005 -0.000
166 4 1.048 14.312 -1.375 0.001 -0.009 -0.008 -0.000
167 4 3.000 12.260 -1.396 0.003 -0.011 -0.004 -0.000
170 4 4.612 14.356 -1.300 0.009 -0.003 -0.009 0.000
171 4 6.644 12.433 -1.350 -0.001 -0.001 -0.007 -0.000
174 4 8.420 14.340 -1.349 0.002 0.011 0.000 0.000
175 4 10.250 12.191 -0.874 0.007 -0.003 -0.004 -0.000
178 4 12.439 13.764 -1.271 -0.002 0.002 0.000 0.000
179 4 14.454 12.146 -0.994 0.004 -0.002 0.009 -0.000
404 4 -1.037 -1.146 0.535 0.003 -0.004 0.001 0.000
406 4 1.349 -1.108 2.640 -0.001 -0.003 0.001 0.000
408 4 3.098 -1.021 0.515 -0.004 -0.001 -0.002 0.000
410 4 4.464 -0.736 2.298 -0.008 -0.007 0.002 0.000
412 4 6.733 -0.922 0.846 0.000 -0.002 0.002 0.000
414 4 8.973 -1.106 2.668 0.001 0.001 0.003 0.000
416 4 11.012 -1.362 0.911 0.004 0.015 -0.000 0.000
418 4 12.339 -1.105 2.688 0.012 0.010 -0.003 -0.000
420 4 14.096 -0.783 0.754 0.000 -0.008 -0.001 -0.000
443 4 -1.039 0.740 2.548 0.004 -0.019 0.002 0.000
444 4 -0.886 2.763 0.820 -0.006 0.003 0.002 0.000
445 4 0.783 0.772 0.798 -0.001 0.011 -0.002 -0.000
446 4 1.072 2.692 2.787 0.002 -0.000 0.000 0.000
447 4 2.880 1.021 2.395 0.006 0.006 -0.007 -0.000
448 4 2.942 2.814 0.644 0.008 0.002 -0.001 0.000
449 4 4.608 1.223 0.702 -0.002 0.005 0.007 -0.000
450 4 4.531 2.778 3.026 -0.008 -0.006 -0.017 0.000
451 4 6.596 0.985 2.590 -0.002 0.005 -0.008 -0.000
452 4 6.811 2.595 0.756 0.006 0.001 0.007 0.000
453 4 8.510 0.760 0.752 -0.011 0.002 -0.004 -0.000
454 4 8.847 2.609 2.685 -0.001 0.000 -0.007 0.000
455 4 10.537 0.583 2.852 0.000 -0.000 -0.004 -0.000
456 4 10.459 2.582 0.990 0.009 0.003 0.010 -0.000
457 4 12.441 0.788 0.989 -0.010 0.003 0.001 0.000
458 4 12.301 3.235 2.792 -0.006 0.001 -0.004 0.000
459 4 14.328 1.001 2.789 -0.001 -0.012 0.009 -0.000
460 4 14.231 2.522 0.931 0.008 0.010 -0.003 -0.000
483 4 -1.031 4.488 2.746 0.009 0.007 0.012 -0.000
484 4 -0.980 6.319 0.753 0.012 -0.009 -0.001 -0.000
485 4 0.952 4.441 0.800 -0.006 0.000 0.011 -0.000
486 4 0.968 6.540 2.724 0.005 0.009 -0.009 0.000
487 4 2.781 4.753 2.849 -0.004 -0.001 -0.009 -0.000
488 4 3.316 6.412 1.227 0.008 0.012 -0.002 -0.000
489 4 4.710 4.366 1.083 0.006 0.009 -0.012 -0.000
490 4 5.089 6.602 2.554 -0.007 -0.002 0.008 0.000
491 4 6.842 4.451 2.383 -0.002 -0.004 -0.009 0.000
492 4 6.712 6.703 0.888 -0.006 0.000 -0.002 -0.000
493 4 8.811 4.559 0.911 0.002 -0.001 0.000 0.000
494 4 8.753 6.909 2.542 0.005 -0.009 -0.003 -0.000
495 4 10.493 4.834 2.684 0.004 0.004 -0.001 -0.000
496 4 10.375 6.690 0.594 -0.013 -0.003 -0.002 -0.000
497 4 12.243 4.695 0.738 -0.008 -0.005 -0.005 0.000
498 4 12.023 6.623 2.510 -0.011 0.010 0.001 -0.000
499 4 14.129 4.900 2.688 0.003 0.006 0.001 -0.000
500 4 14.257 6.497 0.682 0.009 0.005 -0.000 -0.000
523 4 -0.876 8.010 2.541 0.000 0.006 0.005 0.000
524 4 -1.183 10.289 0.757 0.010 -0.006 0.005 0.000
525 4 0.978 8.574 0.806 0.005 -0.001 0.007 0.000
526 4 0.687 10.201 2.712 -0.005 -0.010 -0.004 0.000
527 4 2.907 8.614 2.355 0.005 0.002 -0.012 0.000
528 4 2.411 10.333 0.330 0.010 -0.002 0.001 0.000
529 4 5.118 8.786 0.813 -0.006 0.006 -0.002 0.000
530 4 4.864 10.307 2.749 0.003 -0.007 -0.001 0.000
531 4 6.555 8.634 2.900 -0.005 0.005 -0.001 0.000
532 4 6.862 10.527 0.880 -0.001 -0.001 0.002 0.000
533 4 8.378 8.542 0.727 -0.004 0.002 0.001 0.000
534 4 8.769 10.105 2.805 -0.007 0.001 -0.006 0.000
535 4 10.255 8.570 2.756 -0.009 0.010 -0.006 0.000
536 4 10.416 10.179 0.633 0.007 -0.000 0.011 -0.000
537 4 12.242 8.530 0.972 -0.001 0.002 -0.014 0.000
538 4 12.312 10.494 2.723 -0.001 0.011 -0.009 0.000
539 4 14.056 8.693 2.994 0.003 -0.000 -0.008 -0.000
540 4 14.510 10.503 0.687 0.009 0.012 0.013 -0.000
563 4 -0.729 12.277 2.423 -0.003 -0.008 0.004 -0.000
564 4 -0.822 14.364 0.703 -0.008 -0.010 0.008 -0.000
565 4 0.954 12.459 0.696 -0.001 0.006 0.006 0.000
566 4 1.194 14.505 2.612 -0.009 0.003 -0.000 0.000
567 4 2.780 11.989 2.317 0.003 -0.011 -0.001 -0.000
568 4 2.856 14.294 0.629 0.005 0.007 0.003 -0.000
569 4 4.907 12.250 0.493 0.004 0.004 0.000 0.000
570 4 4.728 13.983 2.473 0.003 0.000 0.013 0.000
571 4 6.447 12.303 2.735 0.006 -0.007 0.010 -0.000
572 4 6.661 13.981 0.271 0.001 0.008 -0.002 -0.000
573 4 8.657 12.368 1.002 0.007 -0.005 0.016 0.000
574 4 8.515 14.126 2.959 -0.018 0.002 -0.001 0.000
575 4 10.344 12.346 2.536 -0.005 0.010 -0.005 0.000
576 4 10.640 14.266 0.685 -0.007 -0.001 -0.013 -0.000
577 4 12.420 12.306 0.997 -0.006 0.003 -0.005 -0.000
578 4 12.349 14.025 2.443 0.001 -0.003 -0.006 0.000
579 4 14.313 12.204 2.547 -0.005 -0.009 0.003 0.000
580 4 14.137 14.182 0.902 0.003 0.002 -0.005 -0.000
804 4 -0.969 -0.628 4.429 -0.000 -0.003 -0.001 0.000
806 4 0.920 -1.357 6.189 0.009 -0.005 -0.003 -0.000
808 4 2.929 -0.766 4.637 -0.003 -0.018 -0.003 -0.000
810 4 4.428 -1.206 6.811 0.002 0.003 -0.002 -0.000
812 4 6.507 -0.713 4.759 -0.001 0.005 0.002 -0.000
814 4 8.493 -1.055 6.328 -0.004 -0.004 -0.011 0.000
816 4 10.388 -1.128 4.760 0.005 0.013 0.006 0.000
818 4 12.269 -1.112 6.629 -0.007 0.004 0.000 -0.000
820 4 14.495 -1.095 4.744 0.000 0.008 -0.001 -0.000
843 4 -1.165 0.918 6.394 -0.008 -0.008 0.002 0.000
844 4 -1.307 2.530 4.085 0.008 -0.005 0.003 0.000
845 4 0.976 0.744 4.520 -0.003 -0.005 0.013 0.000
846 4 0.959 2.585 6.385 0.004 -0.002 0.007 0.000
847 4 2.413 0.787 6.704 0.008 0.001 0.003 -0.000
848 4 2.721 2.387 4.872 -0.004 -0.011 0.011 -0.000
849 4 4.778 0.933 4.643 -0.002 -0.007 0.005 0.000
850 4 5.044 2.846 6.655 0.002 -0.008 0.005 0.000
851 4 6.610 0.859 6.817 0.005 0.001 -0.005 0.000
852 4 6.565 2.610 4.616 0.001 0.004 -0.004 -0.000
853 4 8.662 0.896 4.493 0.003 0.007 0.003 0.000
854 4 8.387 3.057 6.641 -0.002 0.007 -0.003 0.000
855 4 10.067 0.946 6.611 0.007 -0.001 -0.002 -0.000
856 4 10.681 3.000 4.640 -0.004 -0.008 -0.005 -0.000
857 4 12.390 0.630 4.631 0.003 0.006 0.007 0.000
858 4 12.098 3.134 6.477 -0.005 0.007 0.003 0.000
859 4 14.430 1.024 6.675 0.006 -0.003 -0.003 0.000
860 4 14.000 2.897 4.256 0.000 0.005 -0.001 -0.000
883 4 -1.034 4.031 6.389 0.003 0.003 0.007 0.000
884 4 -1.100 6.393 4.719 -0.003 0.006 -0.003 -0.000
885 4 0.843 4.477 4.486 0.005 0.001 -0.001 -0.000
886 4 1.093 6.415 6.170 0.008 0.004 -0.002 0.000
887 4 2.776 4.286 6.551 -0.002 0.008 -0.009 -0.000
888 4 2.744 6.909 4.133 0.005 -0.006 -0.003 0.000
889 4 4.766 4.900 4.390 -0.007 0.000 -0.012 -0.000
890 4 4.652 6.625 6.172 0.001 0.005 0.004 0.000
891 4 6.439 4.644 6.421 -0.006 0.001 -0.003 0.000
892 4 7.002 6.309 4.259 0.001 -0.003 -0.007 -0.000
893 4 8.808 4.447 4.289 -0.001 -0.007 0.003 0.000
894 4 8.257 6.493 6.767 -0.010 -0.006 -0.008 0.000
895 4 10.182 4.683 6.601 -0.010 0.002 -0.003 -0.000
896 4 10.391 6.668 4.796 0.003 -0.005 0.008 -0.000
897 4 12.209 5.215 4.560 -0.006 -0.010 0.004 0.000
898 4 12.592 6.853 6.238 0.009 0.003 -0.000 0.000
899 4 14.486 4.462 6.755 0.008 -0.006 -0.006 0.000
900 4 14.329 6.948 4.486 -0.000 0.013 0.011 0.000
923 4 -0.965 8.218 6.453 0.007 -0.011 0.009 0.000
924 4 -1.003 10.113 4.881 0.003 -0.003 0.004 0.000
925 4 0.903 8.346 4.383 -0.002 -0.004 -0.000 -0.000
926 4 0.947 10.551 6.247 0.003 0.010 -0.003 0.000
927 4 2.902 8.459 6.185 -0.003 -0.005 -0.002 0.000
928 4 2.824 10.207 4.295 0.005 0.007 0.003 0.000
929 4 4.567 8.444 4.174 -0.006 0.001 0.001 -0.000
930 4 4.638 10.316 5.922 0.010 0.001 0.006 -0.000
931 4 6.465 8.511 6.790 -0.009 0.006 -0.002 0.000
932 4 6.388 10.533 4.385 0.007 0.005 0.002 0.000
933 4 8.251 8.313 5.106 0.005 -0.003 -0.007 -0.000
934 4 8.794 10.434 6.290 -0.009 0.005 0.009 -0.000
935 4 10.415 8.308 6.513 -0.005 0.001 -0.009 -0.000
936 4 10.475 10.694 4.194 -0.001 0.011 -0.009 0.000
937 4 12.018 8.743 4.821 -0.001 0.002 -0.002 -0.000
938 4 11.994 10.028 6.790 0.001 0.004 -0.005 0.000
939 4 14.121 8.691 6.277 0.008 -0.008 0.005 -0.000
940 4 14.395 10.586 4.462 0.012 0.001 0.004 0.000
963 4 -1.017 12.475 6.423 0.004 0.003 0.007 0.000
964 4 -0.614 14.532 4.155 -0.019 -0.007 0.001 -0.000
965 4 0.977 12.348 4.366 0.003 0.007 0.003 0.000
966 4 1.110 14.212 6.049 -0.006 -0.007 -0.002 -0.000
967 4 2.702 12.205 5.968 0.000 -0.006 0.001 -0.000
968 4 2.737 14.202 4.170 -0.010 -0.000 0.004 0.000
969 4 4.553 12.300 4.361 -0.000 -0.003 0.001 -0.000
970 4 4.595 14.418 6.214 -0.003 0.005 -0.009 -0.000
971 4 6.551 12.184 6.356 0.013 0.007 -0.013 0.000
972 4 6.557 14.224 4.520 -0.000 -0.003 0.007 0.000
973 4 8.450 12.317 4.532 0.004 -0.012 0.004 -0.000
974 4 8.641 13.953 6.455 0.003 0.005 -0.005 -0.000
975 4 10.502 12.008 6.488 0.007 -0.002 -0.004 0.000
976 4 10.428 14.097 4.643 0.001 0.004 0.004 0.000
977 4 12.458 12.331 4.526 0.006 -0.001 0.008 -0.000
978 4 12.417 13.991 5.967 -0.005 -0.000 0.007 0.000
979 4 14.114 12.141 6.517 -0.001 0.009 -0.002 -0.000
980 4 14.704 14.367 4.302 0.005 0.003 0.004 -0.000
1204 4 -1.153 -1.032 8.341 0.012 -0.006 -0.011 -0.000
1206 4 0.679 -1.206 10.750 0.004 -0.007 -0.005 -0.000
1208 4 2.301 -1.115 8.512 0.013 -0.001 0.007 -0.000
1210 4 4.650 -1.545 10.149 -0.002 -0.001 -0.004 -0.000
1212 4 6.794 -1.118 8.155 -0.005 0.002 -0.002 0.000
1214 4 8.985 -0.698 10.100 -0.007 0.003 -0.003 -0.000
1216 4 10.596 -1.228 8.615 0.005 -0.005 0.013 0.000
1218 4 12.440 -0.988 10.256 -0.006 0.008 -0.004 -0.000
1220 4 14.083 -0.892 8.137 0.002 0.007 0.001 0.000
1243 4 -1.415 0.730 10.191 -0.011 -0.002 -0.001 0.000
1244 4 -1.300 2.599 8.648 0.006 -0.002 -0.005 0.000
1245 4 0.627 0.694 8.642 -0.013 -0.012 -0.002 0.000
1246 4 0.674 2.206 10.293 0.003 0.003 -0.007 -0.000
1247 4 2.606 0.330 10.504 0.005 0.008 -0.006 -0.000
1248 4 2.469 2.666 8.604 -0.003 0.002 -0.014 -0.000
1249 4 4.485 1.061 8.278 -0.002 0.002 -0.002 0.000
1250 4 4.470 2.539 10.395 0.010 0.008 0.003 -0.000
1251 4 6.687 0.850 10.413 -0.007 0.006 0.003 0.000
1252 4 6.445 2.753 8.561 0.001 -0.003 0.008 -0.000
1253 4 8.401 1.098 8.377 -0.001 -0.004 0.008 0.000
1254 4 8.412 2.928 10.671 0.005 -0.003 -0.001 0.000
1255 4 10.576 1.017 10.755 -0.002 0.001 0.010 -0.000
1256 4 10.164 2.883 8.851 -0.006 -0.008 -0.005 -0.000
1257 4 12.075 1.151 8.470 0.001 0.002 0.003 0.000
1258 4 12.153 2.648 10.586 0.001 -0.006 -0.002 -0.000
1259 4 13.709 0.828 10.465 0.003 -0.009 0.002 0.000
1260 4 14.203 2.605 8.994 0.006 -0.001 0.001 -0.000
1283 4 -0.877 4.035 10.537 0.004 0.004 0.008 0.000
1284 4 -1.166 6.180 7.997 0.000 0.006 -0.006 -0.000
1285 4 0.729 4.386 8.376 -0.007 -0.001 -0.003 -0.000
1286 4 0.490 6.209 10.507 -0.003 -0.010 0.004 -0.000
1287 4 2.593 4.567 10.237 0.010 0.002 0.000 0.000
1288 4 1.928 6.141 8.515 -0.004 0.001 0.007 -0.000
1289 4 4.298 4.499 8.469 -0.002 0.000 -0.001 0.000
1290 4 4.591 6.412 10.498 0.003 -0.006 0.006 0.000
1291 4 6.453 4.481 10.429 0.009 0.001 0.000 0.000
1292 4 6.483 6.653 8.908 -0.000 0.011 -0.004 -0.000
1293 4 8.284 4.749 8.722 0.001 0.003 0.001 -0.000
1294 4 8.305 6.546 10.442 0.004 0.001 0.009 0.000
1295 4 10.449 4.551 10.720 0.004 -0.006 0.002 -0.000
1296 4 10.218 6.462 8.751 0.004 -0.002 0.007 -0.000
1297 4 12.224 4.375 8.758 0.002 0.008 0.002 0.000
1298 4 12.444 6.405 10.459 0.003 -0.008 -0.002 -0.000
1299 4 14.207 4.796 10.569 -0.002 0.004 -0.008 -0.000
1300 4 14.180 6.347 8.315 0.010 0.009 -0.004 -0.000
1323 4 -0.935 8.343 9.768 -0.005 0.008 -0.006 0.000
1324 4 -1.061 10.455 8.016 0.004 -0.001 -0.004 -0.000
1325 4 1.150 8.351 7.551 0.007 0.004 -0.001 0.000
1326 4 1.279 10.243 10.174 -0.013 0.002 0.001 -0.000
1327 4 2.230 7.875 9.695 0.000 0.001 -0.006 -0.000
1328 4 2.542 10.319 7.942 -0.001 -0.004 0.003 0.000
1329 4 4.422 7.825 8.269 0.005 0.007 0.009 0.000
1330 4 4.076 10.365 9.648 0.001 0.005 0.005 0.000
1331 4 6.065 8.709 10.356 -0.016 0.011 0.000 0.000
1332 4 6.372 10.281 8.348 -0.000 -0.002 0.007 -0.000
1333 4 8.108 8.247 8.309 -0.011 -0.001 -0.005 -0.000
1334 4 8.304 10.111 10.066 -0.001 0.002 -0.011 -0.000
1335 4 10.418 8.199 10.726 -0.001 -0.008 0.009 -0.000
1336 4 10.284 9.835 8.259 -0.012 -0.010 0.015 -0.000
1337 4 12.430 8.339 8.456 0.009 -0.005 -0.005 0.000
1338 4 12.258 10.193 10.442 0.009 0.004 -0.004 -0.000
1339 4 14.270 8.626 10.528 -0.001 0.010 0.007 -0.000
1340 4 14.173 10.256 8.565 0.004 -0.001 -0.003 0.000
1363 4 -1.327 12.320 9.820 -0.010 0.008 0.008 -0.000
1364 4 -0.865 14.385 8.097 -0.010 -0.002 -0.003 -0.000
1365 4 0.804 12.468 8.006 0.006 -0.002 -0.001 0.000
1366 4 1.347 14.100 9.999 0.002 -0.001 0.005 0.000
1367 4 2.918 12.561 9.880 0.001 -0.004 0.008 -0.000
1368 4 2.830 13.891 7.797 -0.003 0.002 -0.002 0.000
1369 4 4.614 12.347 8.125 0.004 -0.002 0.014 -0.000
1370 4 4.485 14.330 9.895 0.001 -0.002 -0.004 0.000
1371 4 6.126 12.079 10.070 0.007 0.009 -0.007 -0.000
1372 4 6.659 14.304 8.322 0.004 -0.005 0.003 0.000
1373 4 8.348 12.145 8.163 0.003 0.001 0.008 -0.000
1374 4 8.323 14.010 10.379 0.002 -0.008 -0.006 -0.000
1375 4 10.354 12.393 10.383 0.008 -0.003 -0.004 -0.000
1376 4 10.462 14.071 8.197 -0.001 -0.001 0.006 0.000
1377 4 12.297 12.363 8.379 -0.001 -0.001 0.004 -0.000
1378 4 12.196 14.318 10.240 0.003 0.003 0.002 -0.000
1379 4 14.229 12.234 10.334 0.004 0.010 0.004 0.000
1380 4 13.900 14.200 8.474 -0.004 0.002 0.001 0.000
1604 4 -1.232 -1.399 12.174 0.004 -0.006 0.011 0.000
1606 4 0.500 -1.133 14.259 0.006 0.000 0.003 0.000
1608 4 2.950 -1.206 12.481 -0.001 -0.006 0.005 0.000
1610 4 4.949 -1.276 14.112 -0.003 -0.001 0.004 -0.000
1612 4 6.862 -0.948 12.090 -0.000 -0.008 -0.004 0.000
1614 4 8.689 -0.870 14.128 -0.008 -0.004 -0.010 -0.000
1616 4 10.445 -1.002 12.332 0.016 0.011 -0.002 0.000
1618 4 12.327 -1.176 14.178 -0.005 -0.000 0.004 0.000
1620 4 13.841 -0.757 12.449 0.003 0.011 -0.001 0.000
1643 4 -0.960 0.593 14.308 -0.009 0.007 -0.003 -0.000
1644 4 -0.999 2.380 12.345 -0.002 0.004 0.008 0.000
1645 4 1.112 0.381 12.595 0.000 0.007 -0.008 -0.000
1646 4 1.246 2.762 14.225 0.006 0.001 -0.000 -0.000
1647 4 2.653 0.290 14.316 -0.005 0.004 -0.009 0.000
1648 4 2.894 2.354 12.241 0.001 0.014 0.001 0.000
1649 4 4.626 0.605 12.561 -0.004 -0.005 0.003 -0.000
1650 4 4.063 3.134 14.221 -0.006 0.011 0.001 -0.000
1651 4 6.530 0.509 14.406 -0.006 0.003 0.000 0.000
1652 4 6.159 2.672 12.636 0.002 -0.006 0.004 0.000
1653 4 8.263 0.929 12.469 0.006 0.010 0.006 -0.000
1654 4 8.381 2.479 13.982 -0.002 -0.014 0.003 0.000
1655 4 10.370 0.449 14.271 -0.002 0.003 0.001 -0.000
1656 4 10.464 2.636 12.552 0.005 -0.002 -0.002 0.000
1657 4 12.119 0.815 12.660 0.000 0.004 -0.005 0.000
1658 4 12.309 2.537 14.430 0.004 0.006 0.007 -0.000
1659 4 14.299 1.000 14.426 0.004 -0.009 -0.004 0.000
1660 4 14.100 2.721 12.607 -0.004 0.004 0.001 -0.000
1683 4 -0.970 4.870 13.789 -0.007 -0.014 -0.001 0.000
1684 4 -1.431 6.686 12.169 -0.001 -0.002 -0.001 -0.000
1685 4 1.057 4.127 12.392 -0.002 -0.012 -0.002 -0.000
1686 4 0.398 6.772 14.240 -0.013 0.000 0.006 -0.000
1687 4 2.080 5.130 14.334 -0.008 0.000 -0.013 0.000
1688 4 2.667 6.271 12.101 -0.006 0.007 0.011 0.000
1689 4 4.456 4.497 12.221 -0.003 0.000 -0.010 -0.000
1690 4 4.703 6.794 13.801 0.002 -0.007 0.002 -0.000
1691 4 6.453 4.731 14.015 0.001 -0.001 -0.007 0.000
1692 4 6.461 6.477 12.249 0.002 0.005 -0.005 -0.000
1693 4 8.660 4.635 12.694 0.005 -0.008 0.007 -0.000
1694 4 8.345 6.897 14.021 -0.004 -0.001 -0.003 0.000
1695 4 10.071 4.951 14.667 0.004 -0.004 -0.000 0.000
1696 4 10.556 6.446 12.516 -0.001 -0.003 -0.006 -0.000
1697 4 12.094 4.579 12.439 0.003 -0.002 -0.000 -0.000
1698 4 12.327 6.481 14.355 0.007 -0.009 0.010 -0.000
1699 4 14.400 4.843 14.151 -0.002 0.004 -0.004 0.000
1700 4 14.235 6.593 12.658 0.001 0.005 -0.009 -0.000
1723 4 -1.111 8.538 13.620 0.006 0.002 0.004 0.000
1724 4 -1.257 10.408 11.778 -0.005 0.004 -0.004 -0.000
1725 4 0.708 8.444 12.083 0.001 0.002 0.002 0.000
1726 4 0.560 10.222 14.189 0.013 0.000 0.002 0.000
1727 4 2.680 8.188 14.025 -0.008 0.001 -0.007 0.000
1728 4 2.511 10.252 12.266 -0.004 -0.001 0.002 0.000
1729 4 4.227 8.611 11.888 -0.009 -0.004 -0.005 -0.000
1730 4 4.465 10.348 14.210 0.001 -0.001 -0.005 -0.000
1731 4 6.337 8.391 13.995 0.003 0.011 -0.003 0.000
1732 4 6.478 10.248 12.405 0.002 0.003 -0.004 0.000
1733 4 8.304 8.341 12.236 -0.001 -0.008 -0.002 -0.000
1734 4 8.292 10.233 13.966 -0.009 0.004 0.004 0.000
1735 4 10.529 8.324 14.090 -0.000 -0.010 -0.002 0.000
1736 4 10.657 9.993 12.186 -0.007 -0.007 0.010 -0.000
1737 4 12.496 8.427 12.581 -0.003 -0.010 0.004 0.000
1738 4 12.256 10.471 14.255 -0.000 0.002 0.007 -0.000
1739 4 14.391 8.497 14.412 0.004 -0.000 -0.001 0.000
1740 4 14.509 10.358 12.371 0.003 0.003 0.000 0.000
1763 4 -1.653 12.748 14.159 0.006 0.003 -0.012 0.000
1764 4 -0.952 13.931 11.853 0.009 0.005 0.004 -0.000
1765 4 0.688 12.129 12.199 0.003 -0.005 -0.011 -0.000
1766 4 0.570 14.064 14.092 0.002 -0.007 -0.014 -0.000
1767 4 2.452 12.139 14.042 -0.005 -0.004 0.002 -0.000
1768 4 2.687 14.401 11.791 0.001 -0.001 -0.004 0.000
1769 4 4.299 12.355 11.676 -0.005 0.007 0.019 -0.000
1770 4 5.051 14.192 13.798 0.003 -0.001 0.002 0.000
1771 4 6.393 12.189 14.187 0.002 -0.007 -0.003 -0.000
1772 4 6.771 14.012 12.030 -0.001 -0.012 0.009 0.000
1773 4 8.535 11.941 11.671 -0.009 -0.005 0.002 -0.000
1774 4 8.596 14.286 13.836 0.004 -0.003 -0.003 0.000
1775 4 9.974 12.479 14.014 0.004 0.001 -0.006 0.000
1776 4 10.279 14.214 12.135 0.000 0.001 -0.012 -0.000
1777 4 12.110 12.353 12.532 -0.007 0.003 0.002 0.000
1778 4 12.276 14.062 14.630 0.003 -0.008 -0.006 -0.000
1779 4 14.330 12.384 14.216 0.000 -0.006 0.005 0.000
1780 4 14.030 14.148 12.427 -0.001 -0.008 -0.002 -0.000
2004 4 -1.084 -1.228 16.392 -0.002 0.007 -0.004 -0.000
2006 4 0.544 -1.104 18.257 0.006 0.007 0.013 0.000
2008 4 2.228 -0.973 16.517 0.004 -0.000 0.005 -0.000
2010 4 4.742 -0.690 17.928 0.007 0.001 -0.012 0.000
2012 4 6.231 -1.013 16.253 0.004 0.002 0.004 -0.000
2014 4 8.624 -1.145 17.829 0.004 -0.005 0.002 -0.000
2016 4 10.464 -1.046 16.400 -0.004 0.000 0.003 -0.000
2018 4 11.945 -0.771 18.391 0.002 -0.004 -0.005 -0.000
2020 4 13.933 -1.004 16.353 -0.004 -0.008 0.009 -0.000
2043 4 -1.271 0.746 18.175 -0.006 0.002 0.007 -0.000
2044 4 -0.975 2.765 16.361 -0.000 -0.005 0.009 -0.000
2045 4 0.830 0.854 16.267 -0.012 0.003 -0.002 0.000
2046 4 0.490 3.307 18.370 0.005 -0.007 -0.002 0.000
2047 4 2.500 1.207 18.021 0.005 -0.013 0.013 -0.000
2048 4 2.586 3.160 16.197 -0.003 -0.004 -0.003 0.000
2049 4 4.488 0.849 15.787 0.002 0.008 0.000 0.000
2050 4 4.510 2.809 18.276 -0.003 0.004 0.000 0.000
2051 4 6.404 1.267 17.725 0.002 -0.003 -0.003 -0.000
2052 4 6.495 2.801 15.715 -0.003 -0.004 0.000 -0.000
2053 4 8.324 0.868 16.210 -0.018 -0.000 -0.021 0.000
2054 4 8.337 3.358 17.739 0.002 -0.003 0.014 0.000
2055 4 10.360 1.191 18.176 0.010 0.001 -0.003 -0.000
2056 4 10.183 2.709 15.973 0.001 0.005 0.001 0.000
2057 4 12.188 0.886 16.109 0.003 -0.003 0.007 0.000
2058 4 12.210 2.775 18.003 0.002 -0.008 -0.006 0.000
2059 4 13.808 0.993 17.789 0.004 0.013 0.009 0.000
2060 4 14.071 3.246 16.139 0.002 -0.003 -0.005 0.000
2083 4 -1.445 4.510 17.998 -0.003 -0.011 0.006 -0.000
2084 4 -1.487 6.031 16.010 -0.008 -0.004 0.008 -0.000
2085 4 0.618 4.622 16.459 0.007 0.004 -0.004 -0.000
2086 4 0.358 6.831 18.010 0.008 -0.005 -0.004 0.000
2087 4 2.690 5.026 18.014 0.004 -0.008 0.004 0.000
2088 4 2.330 7.127 16.440 -0.014 0.008 0.002 -0.000
2089 4 4.219 5.351 16.113 -0.001 0.007 0.001 -0.000
2090 4 4.674 6.829 18.252 -0.006 -0.010 0.001 -0.000
2091 4 6.448 5.090 17.805 -0.005 -0.010 0.005 0.000
2092 4 6.380 6.951 16.430 0.006 -0.010 0.006 -0.000
2093 4 8.261 4.891 16.009 0.011 0.006 0.000 -0.000
2094 4 8.432 6.599 18.227 -0.006 0.001 0.012 0.000
2095 4 10.402 4.871 18.101 -0.007 -0.012 0.007 0.000
2096 4 10.185 6.985 16.226 -0.009 -0.003 -0.006 0.000
2097 4 12.007 5.017 16.211 -0.002 0.011 0.001 0.000
2098 4 12.034 6.739 17.969 -0.003 -0.004 -0.002 -0.000
2099 4 14.169 5.042 18.115 -0.006 -0.011 0.009 -0.000
2100 4 14.043 6.603 16.232 -0.006 0.006 -0.005 -0.000
2123 4 -1.554 8.777 18.190 0.008 0.006 0.007 -0.000
2124 4 -1.514 10.680 15.778 0.004 0.002 -0.003 -0.000
2125 4 0.068 8.507 15.917 0.002 0.012 -0.008 0.000
2126 4 0.285 9.936 17.458 -0.000 -0.003 -0.020 0.000
2127 4 2.872 8.674 17.959 -0.005 -0.008 0.017 -0.000
2128 4 2.309 10.232 15.959 0.003 -0.005 0.001 0.000
2129 4 4.441 8.457 16.053 -0.001 0.001 -0.003 0.000
2130 4 4.363 10.640 17.922 0.004 0.007 0.004 0.000
2131 4 5.989 8.557 18.224 0.003 0.007 0.009 0.000
2132 4 6.454 10.480 16.217 -0.002 -0.001 -0.010 -0.000
2133 4 8.434 8.476 16.018 0.011 0.002 0.002 0.000
2134 4 8.117 10.074 17.686 -0.002 -0.005 -0.007 0.000
2135 4 9.962 8.653 17.957 -0.003 -0.012 0.009 0.000
2136 4 10.202 10.573 15.770 0.002 -0.002 0.000 -0.000
2137 4 12.277 8.353 16.026 0.004 0.010 -0.004 0.000
2138 4 12.202 10.035 18.181 0.001 0.002 0.003 -0.000
2139 4 14.310 8.160 17.756 0.008 0.002 0.002 0.000
2140 4 14.399 10.364 16.189 0.001 0.000 0.017 -0.000
2163 4 -1.151 12.409 17.698 -0.006 0.005 0.004 0.000
2164 4 -1.206 14.648 16.303 0.004 0.003 0.008 0.000
2165 4 0.827 12.389 15.987 0.008 0.003 -0.004 -0.000
2166 4 0.734 13.935 18.056 -0.002 -0.006 -0.010 -0.000
2167 4 2.979 12.451 17.710 -0.000 0.001 -0.001 -0.000
2168 4 2.653 14.448 15.844 0.009 0.001 0.009 -0.000
2169 4 4.683 12.346 15.930 -0.006 -0.001 0.010 0.000
2170 4 4.754 14.180 17.714 -0.003 -0.005 -0.006 -0.000
2171 4 6.989 12.354 17.647 0.002 0.004 -0.005 -0.000
2172 4 6.511 13.997 15.865 -0.001 -0.001 -0.008 0.000
2173 4 8.411 12.648 16.051 0.003 -0.008 -0.000 -0.000
2174 4 8.651 14.519 18.338 0.005 0.005 0.001 0.000
2175 4 10.457 11.806 18.058 0.002 -0.003 0.001 -0.000
2176 4 10.377 14.282 16.575 0.002 0.002 -0.005 -0.000
2177 4 12.533 12.042 16.337 0.002 -0.006 0.004 0.000
2178 4 12.006 14.294 18.356 -0.003 -0.003 -0.009 -0.000
2179 4 14.283 12.231 18.304 -0.003 -0.003 -0.007 0.000
2180 4 14.546 14.371 16.316 -0.008 0.012 0.003 0.000
2404 4 -1.416 -0.865 20.007 0.006 0.003 -0.005 -0.000
2408 4 2.598 -1.271 19.661 0.001 -0.001 -0.001 0.000
2412 4 6.558 -0.756 19.786 0.000 -0.004 0.001 -0.000
2416 4 10.197 -1.276 19.819 0.006 -0.000 0.011 0.000
2420 4 13.955 -0.774 20.369 0.015 0.004 -0.002 0.000
2443 4 -1.404 0.796 21.838 0.009 0.007 0.005 0.000
2444 4 -1.134 2.674 20.348 -0.008 -0.011 0.011 -0.000
2445 4 0.781 0.901 20.036 0.003 -0.003 -0.002 0.000
2448 4 2.600 2.894 20.093 -0.002 -0.012 0.005 -0.000
2449 4 4.392 0.924 20.109 -0.007 -0.001 0.002 0.000
2452 4 6.766 2.721 19.791 0.003 -0.005 0.006 -0.000
2453 4 8.540 0.603 20.006 0.005 0.000 -0.002 0.000
2456 4 10.149 2.921 19.830 -0.001 0.004 0.013 0.000
2457 4 12.166 1.240 20.321 0.002 -0.002 -0.001 0.000
2460 4 14.027 3.008 20.069 0.004 0.006 0.004 -0.000
2484 4 -1.329 6.571 19.881 0.004 -0.003 0.007 -0.000
2485 4 0.656 4.819 20.095 -0.013 0.005 0.001 -0.000
2488 4 2.774 6.693 20.242 -0.009 0.000 0.002 -0.000
2489 4 4.659 4.743 19.650 -0.011 -0.001 0.001 -0.000
2492 4 6.385 6.666 19.742 0.001 0.000 0.005 -0.000
2493 4 8.011 4.785 19.837 -0.007 -0.009 -0.003 -0.000
2495 4 9.916 4.828 21.830 0.006 -0.000 0.001 -0.000
2496 4 10.280 6.603 20.298 0.001 0.003 -0.002 -0.000
2497 4 11.980 4.900 19.777 -0.002 0.000 -0.004 0.000
2500 4 13.634 6.468 19.823 -0.000 -0.005 -0.003 -0.000
2524 4 -1.212 10.831 19.627 0.006 0.008 0.003 -0.000
2525 4 0.924 9.139 19.672 0.000 0.008 -0.004 0.000
2528 4 2.916 10.742 19.581 -0.000 -0.002 0.002 -0.000
2529 4 4.286 8.702 19.882 -0.008 -0.003 -0.007 0.000
2532 4 6.726 10.515 19.491 -0.008 -0.001 0.008 -0.000
2533 4 8.359 8.575 19.985 -0.001 -0.001 -0.001 0.000
2536 4 10.094 10.378 19.878 -0.002 0.005 0.004 -0.000
2537 4 11.929 8.439 19.859 0.004 0.004 0.004 0.000
2538 4 12.387 10.499 21.509 -0.008 0.000 -0.001 0.000
2540 4 14.130 10.374 19.591 0.000 -0.001 0.003 0.000
2564 4 -1.004 14.308 19.942 0.002 0.004 -0.009 -0.000
2565 4 0.668 11.816 19.596 0.000 0.013 -0.001 0.000
2568 4 2.236 14.642 19.857 -0.005 0.009 -0.007 -0.000
2569 4 4.842 12.573 19.608 -0.003 0.007 0.009 0.000
2572 4 6.684 14.495 19.511 -0.001 0.009 -0.003 -0.000
2573 4 8.603 12.287 19.977 0.002 -0.002 -0.004 -0.000
2576 4 10.565 14.310 20.194 -0.008 0.000 0.002 -0.000
2577 4 12.000 12.328 20.173 0.004 0.001 0.012 0.000
2580 4 14.153 13.920 19.874 -0.001 0.000 0.004 -0.000
2534 4 8.391 10.467 21.701 0.002 -0.004 -0.001 0.000
2406 4 0.607 -1.351 21.454 -0.004 0.005 0.010 -0.000
2486 4 0.615 6.773 21.907 0.007 0.004 -0.008 0.000
2539 4 14.054 8.574 21.356 0.010 0.007 -0.004 0.000
2566 4 1.125 14.229 22.407 -0.002 0.001 0.003 -0.000
2523 4 -1.164 8.915 21.571 -0.008 -0.006 -0.010 0.000
2527 4 2.336 8.851 21.856 0.005 0.005 -0.004 0.000
2455 4 10.108 0.694 21.911 -0.002 -0.007 0.008 -0.000
2410 4 4.386 -1.117 21.302 -0.004 0.003 0.010 -0.000
2483 4 -1.233 4.778 21.744 -0.000 -0.006 0.001 0.000
2570 4 4.229 14.564 21.973 0.013 -0.006 -0.004 -0.000
2414 4 8.435 -0.795 21.928 -0.007 -0.008 -0.002 -0.000
2450 4 4.437 2.748 21.726 0.007 -0.003 0.005 0.000
2491 4 6.088 4.831 21.845 0.003 0.001 0.002 0.000
2578 4 12.314 14.474 21.722 0.001 -0.006 0.005 0.000
2498 4 12.168 6.724 21.811 -0.008 0.003 -0.012 0.000
2458 4 12.154 3.116 21.898 0.005 0.000 -0.009 -0.000
2418 4 11.886 -1.054 21.647 -0.002 0.001 -0.005 -0.000
2459 4 14.107 1.015 22.120 0.003 0.000 0.006 0.000
2451 4 6.477 0.937 21.590 -0.007 -0.001 0.003 0.000
2454 4 8.197 2.918 21.755 0.002 0.002 -0.012 -0.000
2567 4 2.418 12.377 21.816 0.002 -0.002 -0.004 0.000
2571 4 6.850 12.369 21.494 -0.002 0.001 0.002 -0.000
2563 4 -1.008 12.645 21.956 -0.005 -0.004 0.001 0.000
2574 4 8.302 14.346 21.391 0.011 -0.009 0.000 0.000
2526 4 0.296 10.666 22.001 -0.001 0.007 -0.004 -0.000
2487 4 2.586 4.850 21.648 -0.001 -0.014 0.014 0.000
2530 4 4.555 10.501 21.543 -0.003 0.000 0.007 -0.000
2490 4 4.721 6.974 21.473 0.007 0.003 -0.003 0.000
2575 4 10.479 12.572 21.784 -0.004 -0.000 0.009 -0.000
2499 4 14.109 5.090 21.872 -0.012 -0.007 -0.000 -0.000
2535 4 10.179 8.492 21.661 -0.000 -0.001 0.009 -0.000
2494 4 8.182 6.773 21.703 -0.001 0.001 0.015 0.000
2531 4 6.422 8.706 21.655 0.005 -0.005 0.011 -0.000
2447 4 2.197 1.242 21.983 -0.010 0.011 -0.001 0.000
2446 4 0.701 3.195 21.714 -0.003 -0.004 0.004 0.000
177 4 12.518 11.980 -3.025 0.006 -0.002 -0.005 -0.000
176 4 10.706 13.538 -2.994 0.004 0.009 -0.006 -0.000
409 4 4.993 -2.985 0.499 -0.003 -0.004 -0.000 0.000
803 4 -1.215 -2.908 6.214 -0.003 0.003 0.002 -0.000
1362 4 -2.448 14.537 10.217 -0.010 0.011 0.002 0.000
2579 4 14.068 12.297 21.793 0.000 0.006 0.001 0.000
140 4 14.156 9.970 -2.733 0.002 -0.002 0.003 0.000
901 4 16.138 4.809 4.392 0.006 0.005 0.003 -0.000
1262 4 16.044 2.955 10.816 0.011 -0.004 -0.004 0.000
1819 4 14.142 16.088 14.433 -0.008 0.010 -0.002 0.000
133 4 8.011 8.189 -3.025 0.000 0.003 -0.010 -0.000
2102 4 16.020 6.399 18.222 0.009 -0.002 -0.006 0.000
1261 4 16.095 0.780 8.642 0.000 -0.001 0.001 0.000
2541 4 16.147 8.333 19.846 0.001 0.012 0.006 -0.000
22 4 15.951 -0.508 -1.390 0.006 -0.003 -0.003 0.000
2207 4 2.453 16.076 17.964 -0.008 0.006 0.006 -0.000
1417 4 12.261 15.999 8.122 -0.004 0.005 0.002 -0.000
92 4 6.578 6.214 -3.012 0.004 -0.003 -0.000 0.000
89 4 4.589 4.819 -3.156 0.009 0.003 -0.004 0.000
2609 4 4.237 16.039 19.904 0.003 -0.003 0.003 0.000
96 4 10.252 6.534 -2.848 -0.002 -0.011 -0.001 0.000
1341 4 15.992 8.218 8.858 0.002 0.000 -0.003 0.000
502 4 15.999 6.928 2.618 0.006 -0.006 0.002 -0.000
1722 4 -2.915 10.569 13.513 -0.003 0.004 0.007 0.000
129 4 4.755 8.440 -2.766 -0.009 -0.000 -0.002 0.000
2022 4 16.111 -0.973 18.030 -0.003 -0.002 0.004 0.000
2 4 -2.852 -1.609 -0.824 -0.003 0.012 -0.006 0.000
561 4 -2.616 12.103 1.071 -0.002 0.000 -0.009 -0.000
1011 4 6.793 15.881 6.211 -0.011 0.007 -0.000 0.000
1419 4 14.240 16.026 9.941 -0.013 0.012 -0.005 0.000
8 4 3.248 -1.102 -2.963 0.004 -0.002 0.004 -0.000
136 4 10.418 10.737 -2.967 -0.003 -0.004 0.002 0.000
1622 4 15.892 -1.683 14.249 0.002 -0.001 0.005 0.000
2061 4 15.921 0.373 16.177 0.004 0.002 0.001 0.000
102 4 16.129 6.419 -1.472 0.010 0.002 0.007 -0.000
1013 4 8.524 16.123 4.531 -0.010 0.003 -0.004 -0.000
617 4 12.230 16.049 0.772 0.002 0.002 -0.007 -0.000
84 4 -0.809 6.335 -3.011 -0.008 0.006 -0.003 -0.000
100 4 14.096 6.882 -3.111 -0.008 0.007 -0.002 0.000
97 4 12.214 4.958 -2.778 -0.009 0.007 0.002 -0.000
982 4 15.941 13.674 6.407 -0.000 -0.001 -0.006 -0.000
461 4 16.111 0.853 0.707 0.002 0.001 0.001 0.000
462 4 15.934 2.612 2.921 0.006 0.009 -0.006 0.000
142 4 16.006 10.233 -1.250 0.003 0.005 -0.002 -0.000
541 4 15.942 8.556 1.003 -0.006 -0.002 -0.007 0.000
962 4 -2.328 14.743 6.241 -0.013 -0.001 -0.002 -0.000
961 4 -2.608 12.852 4.141 0.004 -0.002 0.010 0.000
2217 4 12.559 15.905 16.452 -0.008 -0.002 -0.008 0.000