ITEM: TIMESTEP
53000
ITEM: NUMBER OF ATOMS
32000
ITEM: BOX BOUNDS pp pp pp
-3.006557 73.486557
-2.958484 73.438484
-3.046195 73.526195
ITEM: ATOMS id type x y z vx vy vz q
6 4 1.332 -1.595 -0.959 0.006 0.003 0.000 0.000
10 4 4.531 -1.321 -1.091 -0.005 -0.004 -0.006 0.000
14 4 8.370 -1.315 -1.111 -0.008 0.004 0.000 -0.000
18 4 11.853 -0.743 -1.099 -0.000 -0.012 0.007 -0.000
43 4 -1.202 0.759 -1.276 -0.001 -0.005 0.009 0.000
46 4 0.766 2.436 -1.167 0.001 -0.003 0.004 0.000
47 4 3.089 0.496 -1.858 0.001 0.007 -0.010 0.000
50 4 4.798 2.859 -0.882 -0.002 -0.005 0.004 -0.000
51 4 6.171 1.130 -1.612 0.002 0.019 -0.013 -0.000
54 4 7.824 2.868 -1.413 -0.007 0.010 0.009 -0.000
55 4 10.407 1.161 -1.276 0.001 -0.000 0.003 -0.000
58 4 12.291 2.589 -1.483 0.001 0.003 0.007 0.000
59 4 13.980 0.870 -1.228 -0.007 0.002 -0.005 0.000
83 4 -1.066 4.730 -1.297 -0.002 -0.010 0.002 0.000
86 4 1.177 6.565 -0.983 0.017 -0.001 -0.004 -0.000
87 4 2.976 4.723 -1.344 0.006 -0.007 -0.014 0.000
90 4 4.412 6.583 -1.205 0.010 -0.002 -0.005 -0.000
91 4 6.188 4.824 -1.086 0.012 -0.004 -0.001 -0.000
94 4 7.977 6.736 -1.038 -0.005 -0.002 -0.009 -0.000
95 4 9.948 4.513 -1.299 -0.007 -0.003 0.002 -0.000
98 4 12.233 6.614 -1.137 0.005 -0.002 0.006 0.000
99 4 14.230 4.487 -0.798 0.006 0.017 0.013 0.000
123 4 -1.134 8.872 -0.852 0.001 0.012 0.004 -0.000
126 4 1.022 10.406 -0.615 -0.010 -0.002 0.006 -0.000
127 4 2.786 8.849 -0.696 0.009 0.007 -0.000 -0.000
130 4 4.304 10.733 -0.938 -0.005 -0.001 0.010 0.000
131 4 6.091 8.762 -1.448 -0.005 0.006 0.006 -0.000
134 4 8.505 10.595 -1.464 0.001 0.003 -0.011 -0.000
135 4 10.254 8.492 -0.705 -0.001 -0.003 -0.010 -0.000
138 4 12.291 10.358 -1.212 -0.000 0.009 -0.002 0.000
139 4 14.159 8.233 -1.113 -0.006 -0.006 -0.004 0.000
163 4 -0.889 12.731 -0.968 -0.007 0.007 -0.004 -0.000
166 4 1.097 14.345 -1.269 0.003 0.000 0.003 -0.000
167 4 2.523 12.391 -0.816 -0.004 -0.004 -0.005 -0.000
170 4 4.447 14.255 -1.180 -0.010 0.004 0.011 0.000
171 4 6.254 12.521 -1.393 0.003 -0.005 0.001 0.000
174 4 8.310 14.007 -1.072 0.007 -0.000 -0.002 -0.000
175 4 10.031 12.519 -1.329 0.008 0.008 0.002 -0.000
178 4 12.182 14.624 -1.167 -0.003 -0.003 -0.002 -0.000
179 4 14.050 12.607 -1.186 0.001 -0.002 0.008 0.000
404 4 -1.001 -1.143 0.565 0.000 -0.005 0.007 0.000
406 4 0.733 -0.912 2.526 -0.003 0.000 -0.000 0.000
408 4 3.060 -1.248 1.246 0.004 0.003 0.010 0.000
410 4 4.690 -1.036 3.054 0.003 0.002 -0.001 0.000
412 4 6.173 -0.412 0.635 -0.008 0.007 -0.005 0.000
414 4 8.137 -1.123 2.168 -0.004 -0.001 0.002 -0.000
416 4 10.106 -1.005 0.633 -0.001 -0.010 -0.012 -0.000
418 4 12.167 -0.865 2.777 -0.003 -0.009 -0.007 -0.000
420 4 14.117 -1.136 0.440 -0.003 0.001 0.001 -0.000
443 4 -1.013 1.094 2.441 0.011 0.008 0.003 0.000
444 4 -1.083 2.859 0.539 0.008 0.002 0.001 0.000
445 4 0.861 0.426 0.583 -0.003 -0.005 -0.004 0.000
446 4 0.830 2.485 2.843 0.007 -0.004 -0.013 0.000
447 4 3.237 0.950 2.746 0.000 -0.005 0.006 0.000
448 4 2.474 2.652 1.023 0.002 0.007 -0.009 0.000
449 4 4.280 0.990 0.595 0.001 0.005 0.000 0.000
450 4 4.837 2.932 2.798 0.005 -0.004 0.008 0.000
451 4 6.705 0.753 3.009 0.003 -0.014 -0.002 0.000
452 4 6.345 2.545 0.871 0.002 -0.007 0.012 0.000
453 4 8.281 0.905 0.769 0.002 -0.000 -0.004 -0.000
454 4 8.302 2.807 2.725 -0.004 0.005 0.014 -0.000
455 4 9.965 0.621 2.956 -0.001 0.000 -0.008 0.000
456 4 10.150 2.929 0.847 -0.000 -0.003 -0.004 -0.000
457 4 12.042 0.648 0.886 0.018 -0.001 -0.003 -0.000
458 4 12.136 3.050 2.577 -0.001 0.005 0.005 -0.000
459 4 14.448 0.663 2.869 -0.002 0.014 -0.003 -0.000
460 4 14.182 2.423 1.093 0.005 0.008 -0.002 -0.000
483 4 -0.885 4.576 2.691 -0.006 0.010 0.009 0.000
484 4 -1.322 6.451 0.788 -0.008 0.006 -0.006 0.000
485 4 1.264 4.876 0.865 -0.004 -0.003 -0.007 0.000
486 4 0.938 6.650 2.829 0.002 -0.011 -0.001 0.000
487 4 2.712 4.595 3.221 0.002 0.009 -0.007 0.000
488 4 3.097 6.836 0.779 -0.004 -0.008 0.006 -0.000
489 4 4.458 4.558 0.932 0.006 0.005 0.009 0.000
490 4 4.584 6.614 2.628 -0.007 -0.003 -0.005 0.000
491 4 6.284 4.782 2.545 -0.000 -0.003 0.011 -0.000
492 4 6.198 6.634 0.584 -0.005 -0.008 0.001 -0.000
493 4 8.048 4.612 0.840 -0.007 -0.003 -0.000 -0.000
494 4 8.329 6.814 2.502 0.014 -0.006 -0.001 -0.000
495 4 10.213 4.783 2.616 0.007 -0.001 0.005 -0.000
496 4 9.914 6.662 0.574 0.001 -0.003 0.005 -0.000
497 4 12.086 4.622 0.497 -0.004 -0.018 -0.008 0.000
498 4 12.440 6.365 2.773 0.005 -0.001 -0.015 0.000
499 4 13.986 4.369 2.488 -0.006 -0.004 -0.002 0.000
500 4 14.161 6.512 0.948 -0.003 0.015 0.003 0.000
523 4 -1.119 8.589 2.480 -0.007 -0.008 -0.004 -0.000
524 4 -1.133 10.781 1.017 0.001 -0.002 -0.001 -0.000
525 4 0.599 8.174 0.669 -0.008 0.002 -0.004 -0.000
526 4 0.848 10.193 2.668 -0.005 0.001 -0.000 0.000
527 4 2.811 8.560 2.776 -0.001 -0.005 -0.008 0.000
528 4 2.919 10.333 1.162 -0.002 0.001 -0.012 0.000
529 4 4.695 8.625 0.889 -0.002 -0.002 -0.000 0.000
530 4 4.629 10.730 2.941 0.009 0.005 0.005 0.000
531 4 6.447 8.618 2.713 -0.004 0.001 -0.005 -0.000
532 4 6.315 10.579 0.698 0.004 0.000 -0.007 0.000
533 4 8.202 8.785 0.599 -0.003 0.008 0.008 -0.000
534 4 8.318 10.510 2.694 -0.001 0.003 0.003 0.000
535 4 10.454 8.577 2.484 0.001 0.004 -0.008 0.000
536 4 10.270 10.420 0.712 -0.006 -0.005 -0.001 -0.000
537 4 12.238 8.307 0.752 -0.002 -0.002 -0.001 0.000
538 4 12.488 10.299 2.615 -0.008 0.005 0.006 0.000
539 4 13.739 8.214 2.807 -0.002 0.003 -0.002 0.000
540 4 14.058 10.467 0.767 0.003 -0.007 0.007 0.000
563 4 -0.889 12.618 2.937 -0.003 0.011 -0.000 -0.000
564 4 -1.147 14.475 0.898 0.008 -0.005 0.004 0.000
565 4 1.284 12.425 0.953 0.002 -0.007 -0.000 -0.000
566 4 0.955 14.496 2.531 -0.004 -0.008 -0.006 0.000
567 4 2.925 12.401 2.525 -0.001 -0.008 -0.006 0.000
568 4 2.454 14.478 0.783 0.001 -0.009 0.006 0.000
569 4 4.625 12.395 0.838 -0.004 -0.001 -0.001 0.000
570 4 4.906 14.464 2.503 0.005 0.001 -0.008 0.000
571 4 6.812 12.345 2.793 0.006 0.001 0.002 0.000
572 4 6.574 13.841 0.824 0.005 -0.000 -0.000 -0.000
573 4 8.376 12.247 0.492 -0.001 -0.007 0.003 -0.000
574 4 8.400 14.005 2.940 0.003 -0.001 -0.003 -0.000
575 4 10.193 12.421 2.637 -0.003 -0.004 -0.002 0.000
576 4 10.728 14.174 0.862 -0.004 -0.002 0.012 -0.000
577 4 12.310 12.186 0.553 0.005 0.005 0.002 0.000
578 4 12.375 14.308 2.576 -0.006 0.004 -0.007 0.000
579 4 14.129 12.328 2.321 -0.007 -0.003 0.002 0.000
580 4 13.745 14.273 0.767 -0.007 0.010 -0.000 0.000
804 4 -0.789 -1.236 4.450 -0.010 0.007 -0.005 0.000
806 4 0.755 -1.356 6.192 0.003 0.008 0.005 -0.000
808 4 2.480 -1.348 4.546 -0.001 0.010 -0.003 0.000
810 4 4.777 -1.108 6.747 -0.003 0.001 0.001 -0.000
812 4 6.905 -1.146 4.382 0.006 0.007 0.008 0.000
814 4 8.312 -1.221 6.802 0.008 -0.004 -0.001 -0.000
816 4 10.021 -1.738 4.415 0.011 -0.006 -0.008 -0.000
818 4 11.863 -1.310 6.281 -0.001 0.002 -0.003 0.000
820 4 13.859 -1.281 4.791 -0.005 -0.002 0.005 0.000
843 4 -1.521 0.790 6.233 0.003 0.007 -0.000 -0.000
844 4 -1.034 2.508 4.647 0.001 0.002 0.005 -0.000
845 4 1.162 0.728 4.507 0.002 -0.000 -0.001 -0.000
846 4 0.866 2.775 6.436 0.007 0.005 0.003 -0.000
847 4 2.827 0.514 6.791 0.002 -0.001 0.012 -0.000
848 4 2.789 2.700 4.732 0.001 -0.008 -0.005 0.000
849 4 4.517 0.496 4.936 -0.007 0.007 0.005 0.000
850 4 4.483 2.624 6.483 -0.000 0.003 -0.012 0.000
851 4 6.622 0.514 6.228 0.003 0.003 -0.010 -0.000
852 4 6.791 2.750 4.861 -0.003 -0.006 0.004 0.000
853 4 8.728 0.635 4.930 0.000 -0.015 -0.008 -0.000
854 4 8.733 3.107 6.642 0.005 -0.002 0.010 -0.000
855 4 10.330 0.513 6.374 0.001 0.003 -0.002 -0.000
856 4 9.914 3.009 4.432 -0.002 0.008 -0.003 -0.000
857 4 12.327 0.800 4.320 0.012 0.004 -0.003 -0.000
858 4 12.048 2.682 6.164 0.003 0.013 -0.004 -0.000
859 4 13.930 0.890 6.372 0.010 -0.003 0.007 -0.000
860 4 14.163 2.236 4.446 -0.005 0.001 0.013 -0.000
883 4 -0.812 4.646 6.950 -0.005 0.008 0.001 -0.000
884 4 -0.978 6.265 4.798 0.011 0.005 0.005 0.000
885 4 0.784 4.512 4.565 -0.006 0.002 0.007 0.000
886 4 1.066 6.418 6.720 0.009 -0.008 -0.002 0.000
887 4 2.846 4.656 6.436 -0.005 0.007 0.013 0.000
888 4 2.702 6.438 4.722 -0.002 0.004 -0.010 0.000
889 4 4.705 5.011 4.899 0.005 0.005 -0.001 0.000
890 4 4.457 6.472 6.792 0.007 0.005 0.002 0.000
891 4 6.352 4.511 6.300 0.002 -0.003 -0.007 -0.000
892 4 6.687 6.850 4.557 -0.002 0.000 -0.008 -0.000
893 4 8.202 4.927 4.432 0.007 0.000 -0.002 0.000
894 4 8.148 6.343 6.540 -0.001 0.005 0.007 -0.000
895 4 10.209 4.872 6.165 -0.003 0.002 -0.013 -0.000
896 4 10.317 6.707 4.634 -0.007 0.008 -0.007 -0.000
897 4 12.159 4.477 4.579 -0.013 -0.007 0.001 -0.000
898 4 11.981 6.423 6.692 -0.001 0.006 -0.004 -0.000
899 4 13.965 4.285 6.355 -0.004 -0.007 -0.008 -0.000
900 4 13.457 6.513 5.008 -0.001 -0.005 -0.011 -0.000
923 4 -1.338 8.257 6.446 0.007 0.000 0.000 -0.000
924 4 -1.211 10.710 4.614 -0.001 0.006 0.001 -0.000
925 4 0.588 8.324 4.786 0.009 0.012 0.002 0.000
926 4 0.497 10.213 6.453 -0.006 -0.004 -0.001 -0.000
927 4 2.610 8.107 6.438 0.009 0.011 -0.008 0.000
928 4 2.379 10.469 4.644 0.009 -0.007 -0.006 0.000
929 4 4.331 8.435 4.805 0.004 0.004 -0.006 0.000
930 4 4.485 10.524 6.432 -0.004 0.001 -0.004 -0.000
931 4 6.668 8.599 6.689 -0.001 -0.002 -0.007 -0.000
932 4 6.314 10.407 4.643 0.001 0.003 -0.001 -0.000
933 4 8.516 8.667 4.566 -0.005 -0.000 -0.000 0.000
934 4 8.605 10.386 6.582 0.004 0.002 -0.004 0.000
935 4 10.273 8.726 6.707 0.008 0.000 0.000 0.000
936 4 10.512 10.455 4.749 0.003 -0.002 0.004 0.000
937 4 12.339 8.508 4.613 -0.003 0.003 0.002 0.000
938 4 12.457 10.207 6.558 0.000 -0.002 0.006 -0.000
939 4 14.572 8.694 6.474 0.000 -0.002 -0.002 -0.000
940 4 14.269 10.619 4.538 0.002 0.008 -0.001 -0.000
963 4 -0.912 12.854 6.473 0.004 -0.011 0.000 -0.000
964 4 -0.957 14.483 4.688 0.010 0.008 -0.007 -0.000
965 4 1.238 13.137 4.510 -0.001 0.012 -0.003 -0.000
966 4 1.508 14.936 6.487 0.008 -0.001 0.009 -0.000
967 4 2.087 12.462 6.697 0.001 -0.001 -0.008 -0.000
968 4 3.237 14.591 4.761 0.010 0.014 0.008 0.000
969 4 4.915 12.675 4.572 0.007 -0.008 0.006 0.000
970 4 4.817 14.480 6.732 0.005 -0.010 -0.001 0.000
971 4 6.596 12.065 6.608 0.004 0.006 -0.000 -0.000
972 4 6.686 13.873 4.670 -0.001 0.002 -0.000 -0.000
973 4 8.679 12.133 4.833 -0.006 -0.013 -0.003 -0.000
974 4 8.712 13.822 6.551 -0.016 0.012 -0.003 -0.000
975 4 10.707 12.223 7.018 0.000 0.003 -0.006 -0.000
976 4 10.474 14.330 4.489 0.002 -0.000 0.005 -0.000
977 4 11.964 12.237 4.753 0.004 0.006 -0.002 -0.000
978 4 12.219 14.381 6.620 0.010 0.016 -0.003 -0.000
979 4 14.144 12.536 6.808 0.002 -0.006 0.007 -0.000
980 4 13.805 14.106 4.402 0.000 0.010 0.004 0.000
1204 4 -1.143 -1.219 8.326 0.009 -0.009 0.000 -0.000
1206 4 0.378 -1.443 10.225 -0.005 -0.001 -0.003 -0.000
1208 4 3.077 -1.552 8.628 -0.004 -0.002 0.002 -0.000
1210 4 4.959 -1.349 10.289 0.009 0.008 0.014 -0.000
1212 4 6.867 -1.030 8.519 -0.003 0.004 0.009 -0.000
1214 4 8.556 -0.956 10.542 0.007 -0.001 -0.006 -0.000
1216 4 10.515 -0.788 8.623 -0.004 0.000 -0.011 0.000
1218 4 12.217 -1.195 10.195 0.001 0.002 -0.011 0.000
1220 4 13.926 -1.093 8.317 0.004 0.006 -0.012 0.000
1243 4 -0.982 0.580 10.464 0.005 -0.007 0.001 -0.000
1244 4 -1.107 2.551 8.568 0.003 -0.001 0.003 -0.000
1245 4 0.639 0.540 7.944 0.010 0.006 -0.005 -0.000
1246 4 0.816 2.595 9.931 -0.004 -0.003 -0.010 0.000
1247 4 2.429 0.511 10.112 -0.007 -0.002 0.002 -0.000
1248 4 2.832 2.624 8.497 -0.003 0.005 0.002 0.000
1249 4 4.884 0.763 8.630 0.001 0.005 0.002 0.000
1250 4 4.736 2.677 10.265 0.004 0.005 -0.015 0.000
1251 4 6.743 1.001 10.434 -0.010 -0.008 -0.001 -0.000
1252 4 6.665 2.571 7.928 -0.008 0.005 0.007 -0.000
1253 4 8.403 0.905 8.355 0.010 -0.005 -0.002 -0.000
1254 4 8.131 2.710 10.365 -0.003 0.003 -0.011 -0.000
1255 4 10.068 0.973 10.478 -0.000 0.001 -0.004 -0.000
1256 4 10.136 3.151 8.900 -0.001 -0.007 0.007 -0.000
1257 4 12.099 1.255 8.246 0.006 -0.004 0.004 0.000
1258 4 12.279 2.850 10.139 -0.005 0.004 -0.000 0.000
1259 4 14.147 0.869 10.476 -0.002 -0.004 -0.001 0.000
1260 4 14.164 2.355 8.544 -0.005 -0.011 0.003 0.000
1283 4 -1.172 4.674 9.967 -0.003 0.001 -0.001 0.000
1284 4 -1.175 6.790 8.616 0.009 -0.000 -0.001 0.000
1285 4 1.186 4.718 8.548 -0.002 0.002 0.003 0.000
1286 4 0.865 6.282 10.358 -0.009 0.009 0.002 0.000
1287 4 2.946 4.383 10.672 -0.008 -0.002 0.009 0.000
1288 4 3.012 6.693 8.739 0.004 0.009 -0.001 0.000
1289 4 4.655 4.471 8.418 0.003 0.000 -0.004 0.000
1290 4 5.015 6.594 10.590 0.002 0.002 -0.002 0.000
1291 4 6.503 4.643 10.832 -0.004 -0.002 -0.001 -0.000
1292 4 6.325 6.598 8.451 0.008 0.005 -0.001 -0.000
1293 4 8.350 4.646 8.740 0.005 -0.007 -0.006 -0.000
1294 4 8.153 6.670 10.799 0.003 -0.005 -0.006 -0.000
1295 4 10.291 5.017 10.667 -0.007 0.001 -0.008 0.000
1296 4 10.300 6.514 8.595 0.002 0.005 0.000 0.000
1297 4 12.064 4.600 8.402 0.005 0.001 -0.012 -0.000
1298 4 12.585 6.892 10.170 -0.003 -0.004 0.006 -0.000
1299 4 14.402 4.860 10.098 -0.004 0.011 -0.007 0.000
1300 4 14.312 6.994 8.333 0.007 -0.003 -0.009 -0.000
1323 4 -1.263 8.526 10.445 0.002 0.003 -0.003 0.000
1324 4 -1.015 10.212 8.720 -0.001 0.004 -0.006 -0.000
1325 4 0.681 8.605 8.287 0.009 -0.009 0.000 0.000
1326 4 0.412 10.495 10.544 0.007 0.008 0.002 0.000
1327 4 2.540 8.471 10.440 0.008 0.002 -0.005 0.000
1328 4 2.529 10.484 8.673 -0.006 0.008 -0.003 -0.000
1329 4 4.745 8.400 8.647 0.009 -0.003 0.000 -0.000
1330 4 4.783 10.436 10.093 0.006 0.004 0.004 0.000
1331 4 6.637 8.467 10.564 -0.001 -0.008 0.013 0.000
1332 4 6.766 10.216 8.660 -0.010 0.011 -0.004 -0.000
1333 4 8.421 8.159 8.740 0.010 -0.005 0.005 0.000
1334 4 8.514 10.156 10.570 -0.002 0.000 0.006 0.000
1335 4 10.467 8.335 10.588 0.001 -0.001 -0.004 0.000
1336 4 10.545 10.246 8.608 -0.003 0.002 -0.003 0.000
1337 4 12.034 8.185 8.143 -0.003 -0.005 -0.002 -0.000
1338 4 12.273 10.081 10.106 0.003 -0.001 0.005 0.000
1339 4 14.413 8.416 10.083 -0.004 -0.002 -0.001 -0.000
1340 4 14.247 10.652 8.295 -0.002 -0.005 0.007 -0.000
1363 4 -0.716 12.618 10.520 0.002 0.001 0.000 -0.000
1364 4 -0.381 14.717 8.669 -0.004 -0.003 0.003 -0.000
1365 4 0.498 12.152 8.608 0.006 -0.001 -0.010 -0.000
1366 4 0.991 14.338 10.596 0.005 -0.013 -0.003 -0.000
1367 4 2.258 12.222 10.522 -0.002 -0.001 0.003 0.000
1368 4 2.891 13.986 8.582 -0.004 -0.006 -0.002 0.000
1369 4 4.583 12.301 8.062 0.001 0.007 0.004 -0.000
1370 4 4.524 13.953 10.679 -0.002 -0.010 0.004 0.000
1371 4 6.908 12.307 10.394 0.001 -0.016 0.006 0.000
1372 4 6.994 13.836 8.406 -0.004 0.006 0.011 0.000
1373 4 8.840 12.134 8.480 -0.005 -0.002 0.008 0.000
1374 4 8.697 14.193 10.497 -0.004 -0.001 -0.007 0.000
1375 4 10.648 12.302 10.236 0.011 0.005 -0.003 0.000
1376 4 10.689 14.219 8.561 0.003 -0.002 0.010 -0.000
1377 4 12.442 12.226 8.939 0.006 -0.005 0.004 0.000
1378 4 12.794 14.224 10.993 -0.003 -0.009 -0.001 0.000
1379 4 14.482 12.214 10.750 -0.008 -0.002 -0.004 0.000
1380 4 14.417 14.323 8.664 -0.002 -0.003 0.002 -0.000
1604 4 -1.350 -1.214 12.128 -0.006 0.000 0.006 -0.000
1606 4 0.849 -1.574 14.109 0.002 -0.003 -0.005 0.000
1608 4 2.696 -1.726 12.345 0.006 -0.008 0.001 -0.000
1610 4 4.327 -1.493 14.021 -0.003 0.003 0.005 -0.000
1612 4 6.118 -1.147 12.014 0.002 -0.004 -0.006 -0.000
1614 4 7.871 -1.053 13.911 0.001 0.001 -0.003 -0.000
1616 4 10.296 -1.004 12.086 -0.000 -0.001 -0.001 -0.000
1618 4 12.086 -1.037 14.056 0.003 0.003 0.001 -0.000
1620 4 14.563 -1.344 11.845 -0.001 -0.002 -0.002 0.000
1643 4 -0.865 0.610 14.247 -0.000 0.004 0.002 -0.000
1644 4 -0.624 2.197 12.375 -0.001 0.002 0.001 -0.000
1645 4 0.792 0.155 12.286 0.013 -0.011 -0.003 -0.000
1646 4 0.932 2.482 14.280 -0.001 -0.004 -0.001 0.000
1647 4 2.629 0.484 14.032 0.000 -0.006 0.003 0.000
1648 4 2.557 2.296 11.902 0.004 -0.006 -0.002 0.000
1649 4 4.416 0.549 12.115 0.004 0.004 -0.003 0.000
1650 4 4.239 2.626 14.031 0.008 0.001 0.000 0.000
1651 4 5.777 0.520 14.101 -0.006 0.007 -0.003 -0.000
1652 4 6.312 2.560 12.404 0.000 0.002 0.002 -0.000
1653 4 8.327 1.074 12.332 -0.003 0.001 -0.005 -0.000
1654 4 8.185 2.673 13.899 0.001 0.008 -0.001 -0.000
1655 4 10.264 1.151 13.890 0.001 -0.007 0.006 -0.000
1656 4 10.262 3.011 12.164 -0.003 0.002 -0.012 -0.000
1657 4 12.050 1.147 11.974 0.003 0.005 -0.002 0.000
1658 4 12.430 3.044 13.700 0.008 -0.014 0.002 -0.000
1659 4 14.084 0.678 13.491 0.003 -0.006 0.005 0.000
1660 4 14.350 2.852 12.224 -0.004 0.001 -0.002 0.000
1683 4 -0.922 4.583 14.163 -0.007 0.005 0.006 -0.000
1684 4 -0.854 6.735 12.588 0.014 -0.005 0.002 -0.000
1685 4 0.590 4.337 12.116 -0.003 0.014 0.011 0.000
1686 4 0.606 6.617 14.775 -0.003 0.004 0.002 -0.000
1687 4 2.167 4.960 14.628 0.003 -0.014 -0.002 0.000
1688 4 2.549 6.997 12.591 0.002 -0.008 -0.010 0.000
1689 4 4.288 5.001 12.790 0.003 -0.006 -0.006 0.000
1690 4 4.362 6.765 14.328 0.001 -0.001 -0.003 -0.000
1691 4 6.041 4.521 14.457 -0.002 -0.005 0.010 -0.000
1692 4 6.574 6.907 12.864 0.000 -0.007 -0.001 -0.000
1693 4 8.109 4.822 12.680 -0.009 0.011 -0.008 -0.000
1694 4 8.630 6.841 14.108 -0.005 -0.007 0.003 -0.000
1695 4 10.128 4.646 13.874 -0.003 -0.008 -0.006 -0.000
1696 4 10.559 6.575 12.154 0.006 0.006 0.001 0.000
1697 4 12.358 4.793 11.845 0.008 0.007 0.011 0.000
1698 4 12.313 6.236 13.798 -0.001 -0.009 -0.003 -0.000
1699 4 14.852 4.511 14.179 0.006 0.004 -0.001 0.000
1700 4 14.286 6.789 12.313 0.004 -0.010 0.011 -0.000
1723 4 -1.168 8.583 14.341 0.013 -0.006 -0.009 -0.000
1724 4 -0.554 10.517 12.875 -0.004 -0.002 -0.000 0.000
1725 4 0.613 8.692 12.168 0.002 -0.005 0.005 0.000
1726 4 0.952 10.445 14.508 -0.002 -0.002 -0.001 -0.000
1727 4 2.610 8.533 14.128 -0.004 0.001 -0.002 0.000
1728 4 2.352 10.362 12.209 -0.002 0.009 0.009 0.000
1729 4 4.628 8.577 12.188 -0.007 0.000 -0.003 0.000
1730 4 4.504 10.878 14.558 0.007 -0.013 0.004 -0.000
1731 4 6.678 8.950 14.509 0.000 -0.003 0.008 -0.000
1732 4 6.510 10.551 12.230 0.004 -0.006 0.012 -0.000
1733 4 8.804 8.598 12.117 -0.006 0.010 -0.007 0.000
1734 4 8.685 10.272 14.107 0.002 -0.001 0.001 -0.000
1735 4 10.171 8.408 13.848 0.001 -0.000 0.000 -0.000
1736 4 10.802 10.567 12.175 -0.002 -0.001 -0.005 0.000
1737 4 12.500 8.496 12.105 0.000 0.005 -0.004 -0.000
1738 4 12.051 10.146 13.942 0.002 -0.003 0.010 -0.000
1739 4 14.010 8.663 14.374 -0.008 -0.004 -0.004 -0.000
1740 4 14.502 10.355 12.481 0.002 -0.008 -0.006 0.000
1763 4 -1.295 12.319 14.552 -0.006 -0.003 0.011 -0.000
1764 4 -1.111 14.257 12.575 0.008 0.001 -0.006 -0.000
1765 4 0.719 12.418 12.550 -0.003 0.004 0.008 0.000
1766 4 1.046 14.157 14.182 0.005 -0.000 -0.002 0.000
1767 4 2.793 12.536 14.755 -0.002 -0.007 -0.004 0.000
1768 4 2.969 13.842 12.520 -0.000 0.003 0.005 0.000
1769 4 4.469 11.779 12.237 -0.005 0.000 -0.003 0.000
1770 4 4.872 14.050 14.656 -0.013 -0.003 0.004 -0.000
1771 4 6.779 12.166 14.066 0.002 -0.006 0.005 -0.000
1772 4 7.163 14.200 12.485 0.004 0.002 -0.006 -0.000
1773 4 8.793 12.296 12.183 -0.001 -0.002 0.004 0.000
1774 4 8.449 14.223 14.412 0.000 -0.001 -0.001 -0.000
1775 4 10.338 12.242 14.175 -0.006 -0.007 -0.004 -0.000
1776 4 10.559 14.312 12.163 -0.002 0.007 0.004 0.000
1777 4 12.384 12.046 12.031 -0.006 0.007 0.011 0.000
1778 4 12.718 14.109 14.283 -0.011 0.011 0.006 0.000
1779 4 14.275 12.151 14.309 0.002 0.002 -0.001 0.000
1780 4 14.612 14.230 12.793 0.012 0.005 -0.002 0.000
2004 4 -0.969 -1.226 15.881 0.007 -0.001 -0.002 -0.000
2006 4 0.752 -1.158 18.040 0.001 0.008 -0.001 0.000
2008 4 2.360 -1.221 16.369 -0.002 0.001 -0.003 0.000
2010 4 4.515 -1.028 17.800 -0.000 -0.004 -0.011 0.000
2012 4 6.290 -1.339 15.844 -0.005 -0.005 0.005 -0.000
2014 4 8.364 -1.108 17.713 0.002 -0.000 -0.011 0.000
2016 4 10.037 -0.984 15.723 0.007 0.003 -0.005 -0.000
2018 4 12.235 -1.136 17.735 -0.003 -0.009 -0.001 0.000
2020 4 13.848 -0.632 15.777 -0.003 -0.000 0.003 0.000
2043 4 -1.080 0.223 18.219 0.003 0.011 -0.004 0.000
2044 4 -0.812 3.299 16.246 0.002 0.008 0.001 0.000
2045 4 0.429 1.146 16.521 -0.006 0.013 -0.004 0.000
2046 4 1.050 2.641 18.297 -0.010 0.010 -0.000 0.000
2047 4 2.503 0.801 18.031 -0.004 0.001 0.001 0.000
2048 4 2.519 2.520 16.259 0.001 0.002 -0.000 0.000
2049 4 4.216 0.474 15.855 0.002 -0.004 -0.005 0.000
2050 4 4.698 2.302 18.200 -0.001 0.000 0.016 0.000
2051 4 6.702 0.465 17.622 0.003 0.003 -0.009 0.000
2052 4 6.425 2.772 16.129 0.005 -0.001 0.003 0.000
2053 4 8.435 0.798 15.893 0.003 0.004 0.006 0.000
2054 4 8.265 2.592 17.754 -0.003 -0.007 -0.001 0.000
2055 4 10.210 1.249 17.500 -0.004 -0.007 -0.014 -0.000
2056 4 10.151 2.959 15.422 0.001 0.001 -0.005 -0.000
2057 4 12.030 1.142 15.522 -0.009 0.001 0.002 -0.000
2058 4 12.326 2.708 17.679 -0.003 0.008 0.000 -0.000
2059 4 13.662 0.519 17.914 -0.002 -0.001 0.005 0.000
2060 4 14.233 2.012 15.601 -0.005 -0.006 0.003 -0.000
2083 4 -1.014 4.422 18.399 0.006 -0.004 0.003 0.000
2084 4 -1.055 6.455 16.381 -0.010 -0.001 0.007 -0.000
2085 4 1.069 4.702 16.619 0.002 0.010 -0.000 0.000
2086 4 1.006 6.752 18.045 0.001 -0.001 -0.001 0.000
2087 4 3.007 4.763 18.456 -0.008 0.006 -0.008 0.000
2088 4 2.632 7.022 16.330 0.000 0.001 0.002 -0.000
2089 4 4.530 4.704 16.183 0.002 0.008 -0.000 0.000
2090 4 4.997 6.308 18.417 0.012 0.001 0.003 -0.000
2091 4 6.837 4.566 17.826 -0.006 -0.000 0.004 0.000
2092 4 6.422 6.699 15.778 0.003 0.012 -0.005 -0.000
2093 4 8.202 4.624 15.930 0.002 -0.004 -0.002 -0.000
2094 4 8.624 6.523 17.800 -0.005 -0.001 0.006 -0.000
2095 4 10.631 4.431 17.710 0.001 0.007 -0.002 0.000
2096 4 10.670 6.021 15.883 0.001 0.004 0.002 -0.000
2097 4 12.462 4.264 15.718 -0.004 0.003 -0.001 -0.000
2098 4 12.188 6.486 17.701 -0.006 -0.001 -0.004 0.000
2099 4 13.914 4.586 18.140 0.000 -0.012 -0.002 0.000
2100 4 14.150 6.703 15.434 0.003 -0.001 0.006 0.000
2123 4 -1.010 8.490 17.832 0.006 0.004 -0.002 -0.000
2124 4 -0.908 10.254 15.985 -0.002 0.002 0.004 -0.000
2125 4 0.950 8.761 16.110 0.003 -0.005 -0.005 -0.000
2126 4 0.893 10.132 18.301 -0.004 -0.010 0.004 -0.000
2127 4 2.983 8.313 18.541 -0.008 0.002 -0.001 -0.000
2128 4 2.796 10.591 16.476 0.013 -0.006 -0.007 -0.000
2129 4 4.389 8.714 16.028 -0.001 0.010 0.002 -0.000
2130 4 4.770 10.413 18.333 -0.000 -0.000 -0.001 -0.000
2131 4 6.675 8.347 18.034 -0.001 -0.003 -0.003 -0.000
2132 4 6.422 10.353 16.253 0.004 0.001 0.008 -0.000
2133 4 8.894 8.415 16.169 -0.006 0.003 0.001 -0.000
2134 4 8.784 10.546 17.993 0.008 -0.000 0.008 -0.000
2135 4 10.563 8.511 17.965 -0.005 -0.004 -0.004 0.000
2136 4 10.359 10.576 16.180 -0.005 -0.005 -0.002 -0.000
2137 4 12.061 8.428 15.967 0.004 -0.010 -0.005 -0.000
2138 4 12.195 10.180 17.850 0.012 0.001 0.001 0.000
2139 4 14.303 8.298 17.930 0.000 0.002 -0.000 0.000
2140 4 14.238 10.529 15.993 0.006 -0.001 0.002 0.000
2163 4 -1.098 12.027 18.187 0.000 0.001 0.006 -0.000
2164 4 -0.701 14.129 16.594 0.004 0.000 -0.000 -0.000
2165 4 0.937 12.548 16.434 -0.012 0.003 -0.011 -0.000
2166 4 1.192 14.495 17.862 0.003 0.005 0.002 0.000
2167 4 3.023 12.484 18.269 0.009 0.006 -0.002 0.000
2168 4 2.802 14.385 16.362 0.004 0.013 0.005 0.000
2169 4 4.848 12.427 16.572 -0.002 0.009 -0.002 -0.000
2170 4 4.792 14.728 18.008 -0.000 -0.005 -0.002 -0.000
2171 4 7.046 12.870 18.154 -0.002 0.003 0.002 -0.000
2172 4 6.897 14.354 16.344 -0.005 0.009 0.004 -0.000
2173 4 8.519 12.156 16.314 0.005 -0.013 0.002 -0.000
2174 4 8.792 14.278 17.934 0.002 0.010 0.004 -0.000
2175 4 10.535 12.531 17.828 -0.001 0.005 0.007 0.000
2176 4 10.816 13.998 15.936 0.006 -0.000 0.004 0.000
2177 4 12.267 12.128 16.100 -0.001 0.003 -0.004 0.000
2178 4 12.636 14.222 17.656 -0.004 -0.003 -0.005 0.000
2179 4 13.741 11.799 18.140 -0.011 -0.003 0.008 0.000
2180 4 14.428 13.676 15.907 0.006 -0.011 -0.002 0.000
2404 4 -0.950 -0.892 20.247 0.003 -0.008 -0.009 -0.000
2408 4 2.991 -1.449 19.737 0.014 -0.003 0.003 -0.000
2412 4 6.520 -1.390 19.789 0.015 0.005 -0.010 -0.000
2416 4 9.935 -1.241 19.482 0.001 -0.004 0.005 0.000
2420 4 13.960 -1.040 19.642 -0.003 0.007 0.005 0.000
2444 4 -0.918 2.596 20.677 -0.004 0.003 0.001 0.000
2445 4 1.047 0.908 19.908 0.015 -0.005 0.007 0.000
2448 4 2.788 2.607 20.449 0.004 -0.002 0.004 0.000
2449 4 4.704 0.578 19.623 -0.006 -0.003 -0.011 0.000
2452 4 6.732 2.540 19.539 0.013 -0.016 -0.008 0.000
2453 4 8.460 0.837 19.676 -0.002 -0.004 -0.002 0.000
2456 4 10.034 2.429 19.602 -0.001 0.005 0.002 0.000
2457 4 11.937 0.526 19.823 0.005 -0.005 -0.004 0.000
2460 4 13.838 2.816 19.881 -0.007 -0.000 0.008 -0.000
2484 4 -0.880 6.683 19.844 -0.006 0.012 -0.010 0.000
2485 4 1.067 4.442 20.066 0.000 0.002 0.009 0.000
2488 4 2.874 6.540 20.160 -0.003 0.001 -0.003 -0.000
2489 4 5.081 4.407 20.043 -0.001 -0.008 -0.002 0.000
2492 4 6.938 6.104 19.942 0.001 0.005 -0.007 -0.000
2493 4 8.774 4.239 19.713 0.003 -0.004 0.004 0.000
2496 4 10.059 6.493 19.798 0.001 0.005 -0.003 0.000
2497 4 11.665 4.226 19.964 -0.001 -0.003 -0.001 0.000
2500 4 13.835 6.806 20.315 -0.009 -0.004 -0.004 0.000
2524 4 -1.020 10.448 19.911 -0.004 -0.009 -0.011 -0.000
2525 4 1.116 8.479 20.083 0.006 -0.003 -0.010 0.000
2528 4 2.905 10.193 19.794 -0.007 -0.010 0.001 0.000
2529 4 4.957 8.666 19.957 -0.011 -0.000 0.015 -0.000
2532 4 6.678 10.481 19.462 -0.001 -0.006 -0.006 -0.000
2533 4 8.474 8.292 19.972 0.006 -0.003 0.006 0.000
2536 4 10.390 10.341 19.867 -0.005 0.000 0.009 0.000
2537 4 12.231 8.281 19.983 0.008 -0.004 -0.003 0.000
2540 4 14.162 10.273 19.886 0.010 -0.001 0.001 0.000
2564 4 -0.829 14.206 19.922 -0.002 -0.007 -0.001 0.000
2565 4 0.734 12.356 19.927 0.004 -0.002 0.002 -0.000
2568 4 2.481 14.361 19.903 0.014 0.007 -0.003 0.000
2569 4 4.736 12.020 20.197 0.000 0.005 0.007 -0.000
2572 4 6.666 14.233 20.096 -0.007 0.009 -0.007 -0.000
2573 4 8.617 12.125 19.905 -0.001 -0.017 -0.001 0.000
2576 4 10.578 14.280 19.536 -0.002 0.003 -0.001 0.000
2577 4 12.274 12.203 19.995 0.003 0.005 -0.003 0.000
2580 4 14.054 13.863 19.892 -0.004 0.004 -0.012 0.000
2451 4 6.448 0.729 21.626 0.007 -0.000 0.004 0.000
2450 4 4.785 2.522 22.026 -0.007 -0.009 -0.007 0.000
2486 4 1.195 6.676 22.107 0.001 -0.005 0.011 0.000
2490 4 4.822 6.293 21.949 -0.011 0.003 0.004 -0.000
2491 4 6.941 4.335 21.739 0.000 -0.007 -0.003 0.000
2418 4 12.386 -1.190 21.754 0.005 -0.002 0.010 0.000
2535 4 10.133 8.293 22.210 0.000 0.000 -0.007 0.000
2526 4 1.048 10.486 21.509 0.006 0.002 0.000 -0.000
2531 4 6.326 8.824 21.407 0.001 -0.004 -0.009 -0.000
2539 4 14.363 8.517 21.965 0.006 0.003 0.009 0.000
2459 4 14.028 1.015 21.711 -0.006 0.006 -0.001 0.000
2579 4 14.105 12.054 21.695 0.014 -0.001 -0.005 -0.000
2498 4 11.891 6.253 21.812 0.002 -0.005 0.004 -0.000
2578 4 12.589 13.962 22.018 0.010 -0.001 0.005 -0.000
2566 4 1.081 14.575 22.016 -0.006 -0.007 -0.007 0.000
2571 4 6.526 11.606 21.885 -0.001 0.008 -0.004 -0.000
2410 4 5.064 -1.206 21.671 0.007 -0.002 -0.006 0.000
2530 4 4.598 10.167 21.828 -0.004 -0.007 0.003 -0.000
2414 4 8.268 -1.157 21.453 -0.008 0.002 -0.000 -0.000
2447 4 2.827 0.260 21.459 0.000 0.001 0.007 0.000
2574 4 8.537 14.053 21.811 -0.001 0.002 -0.009 -0.000
2570 4 4.892 14.271 21.869 0.000 -0.001 0.002 -0.000
2455 4 10.497 0.455 21.709 0.004 -0.009 0.006 -0.000
2523 4 -0.821 8.389 21.757 0.002 0.009 -0.001 -0.000
2458 4 11.726 2.632 21.824 -0.011 0.003 -0.004 -0.000
2527 4 2.988 8.544 21.789 -0.002 -0.004 -0.009 -0.000
2487 4 2.803 4.799 22.005 -0.004 -0.002 0.003 0.000
2575 4 10.321 12.439 21.794 0.006 -0.003 -0.010 0.000
2483 4 -0.776 4.914 21.628 -0.009 -0.002 -0.002 -0.000
2538 4 12.094 9.995 21.652 -0.001 -0.008 0.006 0.000
2495 4 9.799 4.600 21.829 -0.004 -0.010 -0.006 0.000
2406 4 0.962 -1.200 21.631 -0.004 -0.005 0.001 -0.000
2563 4 -1.070 12.222 21.801 -0.002 -0.003 -0.001 -0.000
2446 4 0.726 2.610 22.150 -0.008 -0.001 0.001 0.000
2454 4 8.629 2.174 21.581 0.011 0.001 0.002 0.000
2501 4 15.948 5.290 20.093 -0.002 0.007 0.001 0.000
2499 4 13.991 4.573 21.774 -0.008 -0.007 -0.006 -0.000
607 4 2.803 16.040 2.753 -0.003 0.002 0.001 0.000
19 4 14.457 -2.708 -1.644 -0.009 -0.004 0.006 -0.000
862 4 15.874 2.815 6.522 -0.004 0.013 0.008 0.000
62 4 15.892 2.532 -1.096 0.013 0.002 -0.014 0.000
861 4 16.069 0.589 5.074 -0.001 -0.003 0.000 -0.000
2217 4 12.697 16.028 16.267 -0.010 0.006 0.000 0.000
501 4 15.849 4.462 1.081 0.010 -0.004 0.002 -0.000
180 4 14.106 14.420 -2.675 -0.008 0.007 -0.003 -0.000
2213 4 8.606 15.820 16.327 -0.005 0.000 -0.010 -0.000
177 4 12.264 12.485 -2.914 0.004 0.005 -0.009 0.000
1682 4 -2.915 6.578 14.495 0.007 -0.008 -0.005 -0.000
1242 4 -2.950 2.933 10.310 0.000 0.009 0.001 -0.000
1409 4 5.224 15.664 8.688 -0.009 -0.002 -0.004 0.000
417 4 12.085 -2.592 0.552 -0.003 -0.003 0.000 -0.000
461 4 16.051 0.930 0.592 0.008 -0.014 -0.003 -0.000
1361 4 -2.510 11.892 8.523 0.008 -0.007 0.001 -0.000
2567 4 2.962 12.360 21.852 -0.001 0.001 0.010 -0.000
2462 4 15.911 2.957 21.918 0.005 0.009 -0.002 0.000
961 4 -2.677 12.667 4.696 -0.004 0.006 -0.008 -0.000
1401 4 -2.720 16.091 8.618 -0.002 0.002 0.005 -0.000
611 4 6.646 15.963 2.893 -0.000 0.003 -0.005 -0.000
1815 4 10.529 15.766 14.299 -0.002 0.001 0.004 -0.000
2101 4 15.601 4.756 16.735 -0.002 -0.003 0.011 0.000
1641 4 -2.927 0.724 12.499 0.002 -0.000 0.002 -0.000
1602 4 -2.938 -1.224 14.367 -0.001 -0.014 0.003 -0.000
2481 4 -3.000 4.885 20.064 -0.003 0.002 -0.007 -0.000
2215 4 10.480 15.920 17.745 0.003 0.008 0.008 0.000
1003 4 -0.413 16.138 6.590 0.009 0.007 -0.005 -0.000
615 4 10.547 16.106 2.508 0.011 0.005 -0.001 -0.000
2562 4 -2.897 14.596 21.751 -0.007 -0.008 0.007 0.000
88 4 2.510 6.967 -2.839 0.008 -0.001 -0.010 0.000
1261 4 15.889 0.681 8.042 0.006 0.006 -0.002 0.000
162 4 -2.863 14.831 -1.224 -0.007 -0.001 -0.001 0.000
2613 4 8.769 15.941 20.025 0.008 -0.007 -0.004 -0.000
2611 4 7.026 15.950 22.220 0.006 -0.000 0.002 -0.000
1619 4 14.392 -2.671 13.969 0.007 -0.004 -0.001 0.000
2581 4 16.040 12.001 20.225 -0.003 0.000 0.003 0.000
2461 4 15.647 0.919 20.114 -0.006 0.005 -0.007 0.000
402 4 -2.733 -0.996 2.665 -0.008 0.001 -0.001 0.000
1819 4 14.514 15.921 14.603 -0.004 0.003 0.000 -0.000
2534 4 8.569 10.363 22.252 -0.006 0.004 0.009 -0.000
124 4 -0.627 10.671 -2.710 0.001 0.000 0.007 -0.000
2062 4 15.385 2.701 17.971 0.007 -0.014 0.002 0.000
2162 4 -2.896 14.209 18.328 -0.007 0.016 -0.007 -0.000
121 4 -2.910 9.091 -2.497 -0.004 0.002 -0.000 0.000
1019 4 14.320 15.964 6.394 0.004 0.002 -0.003 0.000
1417 4 12.660 16.113 8.366 0.004 0.005 -0.000 -0.000
2142 4 15.952 10.364 18.016 -0.003 -0.003 -0.000 0.000