ITEM: TIMESTEP
60000
ITEM: NUMBER OF ATOMS
32000
ITEM: BOX BOUNDS pp pp pp
-3.088206 73.568206
-2.964978 73.444978
-3.039835 73.519835
ITEM: ATOMS id type x y z vx vy vz q
6 4 0.444 -1.098 -0.720 -0.005 -0.003 0.003 -0.000
10 4 4.327 -0.582 -1.264 -0.003 0.001 0.002 -0.000
14 4 8.702 -1.066 -0.854 0.002 0.005 0.003 -0.000
18 4 11.961 -1.057 -1.737 -0.012 0.004 -0.005 -0.000
43 4 -0.854 0.982 -1.253 0.010 -0.000 -0.011 -0.000
46 4 0.791 3.007 -0.420 -0.008 -0.003 0.000 0.000
47 4 2.537 0.720 -0.607 0.011 -0.008 0.004 -0.000
50 4 4.418 2.902 -1.086 -0.005 0.008 -0.013 0.000
51 4 6.082 1.001 -0.790 0.008 -0.004 0.010 -0.000
54 4 8.636 3.021 -0.853 0.001 0.006 -0.004 -0.000
55 4 10.423 0.752 -1.360 0.007 0.005 0.004 -0.000
58 4 12.023 2.999 -1.053 -0.004 -0.001 0.003 -0.000
59 4 13.890 1.057 -0.975 0.010 0.003 0.007 0.000
83 4 -0.907 4.713 -0.907 -0.010 -0.007 0.005 -0.000
86 4 1.280 6.536 -0.772 -0.005 0.002 0.001 0.000
87 4 2.827 4.655 -0.939 -0.012 -0.008 -0.003 0.000
90 4 4.614 6.393 -1.118 0.010 0.001 0.002 0.000
91 4 6.605 4.774 -1.029 -0.001 0.002 0.005 0.000
94 4 8.263 6.386 -0.768 -0.007 -0.001 0.004 -0.000
95 4 10.192 4.797 -1.159 0.006 -0.003 -0.006 -0.000
98 4 12.334 6.145 -1.201 0.008 0.006 -0.003 -0.000
99 4 13.977 4.494 -1.045 -0.009 -0.004 -0.007 0.000
123 4 -1.491 8.576 -0.548 -0.002 -0.008 0.004 -0.000
126 4 1.065 10.820 -1.038 0.001 -0.003 0.005 -0.000
127 4 2.531 8.796 -1.234 -0.007 0.000 -0.004 -0.000
130 4 4.820 10.998 -1.053 0.001 0.003 -0.001 -0.000
131 4 6.857 8.364 -0.996 -0.008 0.004 0.002 0.000
134 4 8.544 10.406 -0.987 -0.006 0.006 -0.000 0.000
135 4 10.004 8.015 -1.237 0.007 0.006 0.004 -0.000
138 4 12.337 10.344 -1.019 0.002 -0.003 -0.006 0.000
139 4 14.126 8.462 -1.071 0.015 0.001 -0.009 0.000
163 4 -1.122 12.655 -1.187 0.011 0.014 -0.007 -0.000
166 4 1.129 14.795 -1.213 0.004 -0.004 0.002 -0.000
167 4 2.790 12.615 -0.963 0.001 0.000 -0.003 -0.000
170 4 4.840 14.323 -1.176 0.013 0.005 0.005 -0.000
171 4 6.504 12.664 -0.829 0.003 -0.000 0.004 -0.000
174 4 8.651 14.028 -1.000 -0.003 -0.008 0.003 0.000
175 4 10.618 12.220 -0.848 -0.006 0.002 -0.004 0.000
178 4 12.563 14.170 -1.313 0.003 0.008 0.005 0.000
179 4 14.819 12.172 -1.323 0.009 0.004 0.001 0.000
404 4 -1.361 -0.780 0.750 0.008 -0.010 0.003 -0.000
406 4 0.463 -1.163 3.063 0.003 0.005 0.001 0.000
408 4 2.504 -0.924 0.742 -0.013 0.008 0.004 -0.000
410 4 4.692 -0.969 2.620 -0.004 -0.011 0.004 0.000
412 4 6.389 -0.975 0.594 0.005 0.007 0.004 -0.000
414 4 8.321 -1.175 2.181 -0.002 0.002 -0.011 -0.000
416 4 10.487 -1.429 0.584 -0.012 -0.010 -0.012 0.000
418 4 12.216 -1.531 2.628 0.001 -0.003 0.004 0.000
420 4 13.788 -1.072 0.886 -0.012 -0.001 -0.007 0.000
443 4 -1.006 0.700 3.015 0.011 -0.002 -0.014 -0.000
444 4 -1.016 2.643 1.043 0.001 0.001 0.002 -0.000
445 4 0.419 0.876 1.167 -0.005 -0.007 -0.002 -0.000
446 4 0.642 2.877 2.794 0.008 -0.001 -0.001 -0.000
447 4 2.489 0.833 2.735 -0.009 0.006 -0.008 -0.000
448 4 2.851 2.752 1.095 -0.006 0.004 0.010 0.000
449 4 4.699 0.807 1.156 0.001 0.008 0.010 -0.000
450 4 4.684 2.858 3.000 -0.001 -0.006 0.003 0.000
451 4 6.627 0.858 2.703 0.005 -0.012 0.005 -0.000
452 4 6.382 3.049 0.856 0.002 -0.015 -0.002 0.000
453 4 8.523 1.096 0.959 -0.010 -0.002 -0.008 -0.000
454 4 8.310 2.910 2.716 -0.002 -0.000 0.009 -0.000
455 4 10.551 0.686 2.630 -0.002 0.001 -0.020 -0.000
456 4 10.187 2.956 1.159 0.004 0.001 0.003 -0.000
457 4 11.970 0.724 0.580 -0.004 0.003 0.001 0.000
458 4 12.172 2.574 2.653 0.005 -0.001 -0.006 0.000
459 4 14.352 0.713 2.735 -0.001 0.007 -0.011 0.000
460 4 13.768 2.957 0.845 0.004 0.006 -0.007 0.000
483 4 -0.787 4.665 2.682 -0.003 -0.004 0.005 -0.000
484 4 -0.725 6.843 0.978 -0.003 0.005 -0.007 0.000
485 4 0.958 4.967 1.049 -0.004 -0.002 -0.000 0.000
486 4 0.890 6.920 2.905 0.005 -0.002 -0.003 0.000
487 4 2.626 4.733 3.046 -0.007 -0.004 0.004 -0.000
488 4 2.987 6.759 0.900 -0.012 -0.004 0.003 0.000
489 4 4.808 4.563 1.250 0.004 -0.012 0.004 0.000
490 4 4.760 6.651 3.020 -0.002 0.012 -0.002 -0.000
491 4 6.575 4.886 3.037 0.000 0.006 0.004 0.000
492 4 6.419 6.645 0.844 -0.002 0.011 -0.008 0.000
493 4 8.500 4.920 1.117 0.004 -0.004 -0.005 -0.000
494 4 8.333 6.730 2.572 -0.009 0.004 -0.010 0.000
495 4 10.825 4.555 2.798 -0.002 0.003 -0.006 -0.000
496 4 10.106 6.640 1.127 0.003 -0.005 -0.003 -0.000
497 4 12.011 4.631 0.837 0.003 0.004 -0.011 0.000
498 4 12.309 7.086 2.531 -0.004 -0.002 0.003 0.000
499 4 13.796 5.025 2.593 0.008 0.012 -0.001 0.000
500 4 14.007 6.602 0.667 0.008 0.005 -0.004 -0.000
523 4 -1.149 8.879 1.878 -0.001 -0.000 0.008 0.000
524 4 -1.189 11.018 0.712 -0.004 0.005 -0.007 -0.000
525 4 1.061 8.488 1.162 0.012 -0.004 -0.003 0.000
526 4 0.424 10.574 2.623 -0.008 0.000 -0.004 0.000
527 4 2.897 8.707 2.963 0.004 0.009 0.005 0.000
528 4 2.790 10.759 0.981 -0.012 0.002 -0.012 -0.000
529 4 4.444 8.740 0.616 0.000 0.003 0.004 -0.000
530 4 4.760 10.056 2.777 -0.002 0.003 -0.009 0.000
531 4 6.310 8.570 2.904 -0.002 -0.006 0.010 0.000
532 4 6.273 10.298 0.865 -0.006 -0.002 0.009 0.000
533 4 8.409 8.753 0.869 -0.011 -0.001 -0.006 0.000
534 4 8.490 10.670 2.629 0.009 0.000 0.000 0.000
535 4 9.997 8.710 2.810 0.002 -0.009 -0.001 0.000
536 4 10.358 10.484 0.497 0.001 0.006 -0.009 0.000
537 4 11.814 8.385 0.396 -0.002 0.008 -0.006 -0.000
538 4 12.397 9.989 2.130 -0.003 -0.008 0.004 0.000
539 4 14.524 8.761 2.559 0.005 0.002 -0.005 0.000
540 4 14.182 10.571 0.374 -0.015 0.001 0.005 0.000
563 4 -0.941 12.589 3.474 0.002 0.007 0.002 0.000
564 4 -0.810 13.933 1.098 -0.006 0.013 -0.014 -0.000
565 4 0.787 12.396 0.876 0.007 0.003 -0.000 -0.000
566 4 1.118 14.397 2.507 0.003 0.001 -0.003 -0.000
567 4 2.951 12.512 2.697 -0.004 0.003 0.001 -0.000
568 4 2.988 14.299 0.860 -0.001 -0.007 0.002 -0.000
569 4 4.589 12.563 0.830 0.006 -0.004 0.004 -0.000
570 4 5.022 14.723 2.512 -0.003 -0.010 0.000 -0.000
571 4 6.596 12.629 2.655 -0.001 0.002 -0.006 -0.000
572 4 6.619 14.493 0.631 0.005 0.006 0.001 -0.000
573 4 8.367 12.509 0.897 -0.003 0.001 0.011 0.000
574 4 8.616 14.241 2.755 0.001 -0.001 0.013 -0.000
575 4 10.768 12.288 2.276 0.002 0.007 -0.001 -0.000
576 4 10.572 14.264 0.724 0.002 0.006 0.008 -0.000
577 4 12.712 12.356 0.985 -0.004 -0.010 -0.012 0.000
578 4 12.497 14.009 3.044 0.005 -0.002 -0.008 -0.000
579 4 14.196 12.423 3.140 0.005 0.001 -0.010 0.000
580 4 14.274 14.494 1.045 -0.000 -0.004 -0.005 0.000
804 4 -1.364 -0.997 4.639 -0.008 0.008 0.000 -0.000
806 4 0.766 -1.345 6.194 -0.013 -0.000 -0.002 -0.000
808 4 2.943 -1.009 4.747 0.011 0.006 -0.005 -0.000
810 4 4.523 -0.894 6.646 0.013 0.014 0.009 -0.000
812 4 6.561 -1.342 4.453 -0.003 0.002 0.001 -0.000
814 4 8.356 -1.283 6.281 0.011 -0.001 -0.001 -0.000
816 4 10.319 -1.359 4.391 0.002 -0.001 0.000 -0.000
818 4 11.972 -1.304 6.575 0.003 0.004 0.010 0.000
820 4 14.284 -1.269 4.144 -0.002 -0.009 0.002 0.000
843 4 -1.058 1.472 6.447 -0.002 -0.001 -0.001 0.000
844 4 -1.091 2.852 4.509 0.002 -0.007 0.011 -0.000
845 4 1.025 0.900 4.590 0.006 -0.005 0.001 -0.000
846 4 0.949 2.985 6.457 0.006 0.002 -0.005 -0.000
847 4 2.374 0.730 6.678 0.003 0.001 -0.005 -0.000
848 4 2.467 2.755 4.759 -0.005 0.009 0.004 -0.000
849 4 4.654 0.647 4.235 -0.009 -0.003 0.009 0.000
850 4 4.065 2.507 6.461 0.002 0.010 -0.011 -0.000
851 4 6.640 0.612 6.392 0.001 0.005 -0.005 0.000
852 4 6.305 2.535 4.714 0.003 0.008 0.001 0.000
853 4 8.524 0.723 4.350 0.003 0.006 0.007 -0.000
854 4 8.557 2.680 6.463 -0.012 -0.009 -0.008 0.000
855 4 10.270 0.870 6.513 0.006 0.001 0.002 0.000
856 4 10.155 2.946 4.520 -0.002 -0.001 0.004 -0.000
857 4 12.236 0.345 4.705 -0.005 -0.005 -0.002 0.000
858 4 12.506 2.897 6.127 -0.001 0.003 -0.007 0.000
859 4 14.071 0.466 6.931 -0.006 0.009 -0.000 0.000
860 4 13.996 2.940 4.115 -0.004 -0.002 0.008 0.000
883 4 -1.152 4.472 6.692 0.004 0.004 -0.001 0.000
884 4 -1.151 6.710 4.415 -0.001 0.008 -0.000 0.000
885 4 0.777 4.763 4.754 -0.002 0.001 0.012 -0.000
886 4 0.364 6.607 6.649 0.003 0.008 0.010 -0.000
887 4 2.583 4.696 6.329 -0.001 0.008 0.005 -0.000
888 4 2.890 6.606 4.959 0.011 -0.005 -0.005 -0.000
889 4 4.573 4.528 4.918 0.006 -0.009 -0.003 -0.000
890 4 4.624 6.755 6.526 0.007 0.003 -0.003 -0.000
891 4 6.265 4.442 6.701 -0.003 0.009 -0.006 0.000
892 4 6.584 6.486 5.010 -0.001 -0.002 -0.000 0.000
893 4 8.628 5.153 4.762 -0.003 -0.013 0.004 0.000
894 4 8.477 7.010 6.432 -0.007 0.005 0.005 0.000
895 4 10.261 4.930 6.537 -0.013 0.003 0.000 -0.000
896 4 10.214 7.398 4.645 -0.002 0.004 0.003 -0.000
897 4 12.302 4.984 4.893 0.004 -0.001 -0.005 0.000
898 4 12.044 6.914 6.491 0.013 0.009 -0.002 -0.000
899 4 14.133 4.911 6.537 -0.009 -0.004 0.001 0.000
900 4 13.909 7.239 4.598 0.003 -0.005 0.002 0.000
923 4 -1.652 8.476 6.572 -0.005 0.004 0.008 0.000
924 4 -1.121 10.550 5.220 -0.001 -0.001 0.004 0.000
925 4 0.607 8.606 4.481 0.011 -0.002 0.005 0.000
926 4 0.698 10.328 6.492 -0.000 -0.002 0.010 0.000
927 4 2.509 8.260 6.796 -0.012 0.006 0.005 -0.000
928 4 2.724 10.431 5.075 0.001 0.005 -0.009 0.000
929 4 4.476 8.323 4.889 -0.013 0.008 0.001 -0.000
930 4 4.953 10.444 6.599 0.006 0.001 -0.009 0.000
931 4 6.265 8.850 6.465 -0.007 -0.010 -0.008 0.000
932 4 6.648 10.496 4.368 -0.001 0.003 -0.000 0.000
933 4 8.215 8.617 4.469 -0.001 0.002 0.005 0.000
934 4 8.143 10.364 6.471 -0.005 -0.004 -0.006 0.000
935 4 10.190 8.732 6.641 -0.009 0.005 -0.006 -0.000
936 4 10.327 10.772 4.616 0.003 -0.001 0.005 0.000
937 4 12.056 8.960 4.689 0.006 -0.012 -0.004 0.000
938 4 12.100 10.654 6.740 0.000 0.003 0.002 -0.000
939 4 14.294 8.990 6.638 -0.005 0.002 -0.006 0.000
940 4 14.348 10.552 4.486 0.002 0.002 -0.005 0.000
963 4 -1.522 12.364 6.704 -0.004 -0.002 0.005 0.000
964 4 -1.623 14.380 5.232 -0.003 -0.001 0.001 -0.000
965 4 1.031 12.356 4.561 -0.005 -0.000 -0.004 0.000
966 4 0.815 14.161 6.069 0.004 -0.006 0.007 0.000
967 4 2.765 12.251 6.693 -0.001 0.004 0.003 0.000
968 4 2.839 14.280 4.661 0.003 -0.007 -0.009 -0.000
969 4 4.721 12.092 4.514 -0.004 0.010 0.004 0.000
970 4 4.614 14.294 6.492 -0.004 -0.002 -0.001 0.000
971 4 6.475 12.273 6.283 -0.001 -0.009 0.001 0.000
972 4 6.545 14.340 4.643 -0.005 -0.004 -0.001 -0.000
973 4 8.536 12.417 4.375 -0.004 0.012 -0.000 -0.000
974 4 8.209 14.292 6.437 -0.001 -0.007 -0.005 -0.000
975 4 10.291 12.720 6.437 0.006 -0.000 0.002 -0.000
976 4 10.202 14.438 4.408 -0.001 -0.002 -0.008 -0.000
977 4 12.357 12.107 4.844 -0.001 -0.006 0.002 -0.000
978 4 12.346 14.025 6.588 0.003 0.002 -0.008 -0.000
979 4 14.278 12.079 6.616 -0.007 0.009 -0.001 -0.000
980 4 14.144 14.107 5.010 -0.015 -0.007 -0.001 -0.000
1204 4 -1.029 -1.401 8.157 -0.001 0.001 0.005 0.000
1206 4 0.762 -1.253 10.575 -0.006 -0.000 0.001 0.000
1208 4 2.362 -1.039 8.451 -0.000 0.003 0.010 -0.000
1210 4 4.387 -1.284 10.080 -0.003 0.007 0.007 -0.000
1212 4 6.400 -1.100 8.807 -0.002 -0.002 0.003 -0.000
1214 4 8.645 -0.718 10.067 -0.005 -0.001 0.002 -0.000
1216 4 9.992 -1.338 8.125 -0.006 0.004 -0.007 0.000
1218 4 11.578 -0.742 10.014 -0.008 -0.003 -0.002 0.000
1220 4 14.244 -1.433 8.437 -0.004 0.000 0.010 -0.000
1243 4 -0.796 0.668 10.464 -0.005 -0.001 -0.003 0.000
1244 4 -0.823 2.784 8.709 -0.005 0.002 -0.006 0.000
1245 4 0.623 0.899 8.393 -0.009 -0.002 0.005 -0.000
1246 4 0.918 2.853 10.710 0.006 0.006 0.007 -0.000
1247 4 2.747 0.737 10.349 -0.000 -0.004 0.001 -0.000
1248 4 2.250 2.667 8.566 0.008 0.002 0.008 -0.000
1249 4 4.407 0.654 8.576 -0.005 -0.000 0.002 -0.000
1250 4 4.632 2.783 10.176 -0.000 -0.007 -0.000 -0.000
1251 4 6.764 0.902 10.366 0.006 0.001 0.009 -0.000
1252 4 6.602 2.432 8.458 0.005 -0.000 -0.003 0.000
1253 4 8.197 0.645 8.317 -0.000 -0.006 0.007 0.000
1254 4 8.155 2.959 10.819 0.006 -0.005 -0.013 -0.000
1255 4 9.882 1.539 10.551 -0.003 -0.009 0.009 0.000
1256 4 10.347 2.703 8.303 0.004 -0.009 0.002 0.000
1257 4 12.099 0.912 8.052 0.004 0.010 -0.002 0.000
1258 4 12.238 3.075 10.142 0.001 -0.006 -0.012 0.000
1259 4 13.974 1.142 9.488 -0.013 -0.000 -0.004 0.000
1260 4 14.030 2.998 8.066 -0.004 -0.003 -0.002 0.000
1283 4 -1.096 4.691 10.351 0.008 -0.001 -0.010 0.000
1284 4 -1.429 6.961 8.509 0.012 0.004 0.000 0.000
1285 4 0.476 4.760 8.727 0.003 -0.005 -0.012 0.000
1286 4 0.977 6.716 10.454 0.007 0.003 0.004 -0.000
1287 4 2.938 4.877 10.271 -0.002 -0.001 0.005 -0.000
1288 4 2.826 6.643 8.468 -0.006 -0.001 -0.001 -0.000
1289 4 4.550 4.834 8.351 0.000 0.001 0.011 -0.000
1290 4 4.319 6.749 10.290 -0.005 0.004 0.011 -0.000
1291 4 6.413 4.628 10.450 0.002 0.001 -0.005 -0.000
1292 4 6.220 6.832 8.266 -0.013 0.000 0.005 -0.000
1293 4 8.300 4.473 8.274 -0.001 0.002 0.007 0.000
1294 4 8.410 6.477 10.092 -0.011 -0.002 0.005 -0.000
1295 4 9.865 4.548 10.402 -0.007 -0.004 -0.002 0.000
1296 4 10.350 6.877 8.466 0.007 -0.007 0.001 -0.000
1297 4 11.969 4.842 8.089 -0.008 -0.008 -0.001 -0.000
1298 4 12.342 6.676 10.215 -0.000 -0.004 0.006 -0.000
1299 4 14.093 5.075 10.097 -0.002 -0.006 0.003 0.000
1300 4 13.809 6.912 8.593 0.008 0.012 0.001 0.000
1323 4 -1.180 8.990 10.321 0.004 0.006 -0.000 0.000
1324 4 -1.545 10.428 8.268 -0.002 0.003 0.009 0.000
1325 4 0.670 8.386 8.542 0.011 0.001 -0.005 -0.000
1326 4 0.968 10.873 10.016 -0.007 -0.003 0.008 -0.000
1327 4 2.637 8.755 10.109 -0.008 0.011 0.002 -0.000
1328 4 2.679 10.452 8.295 0.004 -0.003 0.001 -0.000
1329 4 4.469 8.684 8.571 -0.003 0.001 0.002 -0.000
1330 4 4.261 10.619 10.276 0.003 0.004 0.005 -0.000
1331 4 6.172 8.499 10.571 -0.002 -0.002 0.000 -0.000
1332 4 6.442 10.522 8.460 0.004 -0.003 0.008 0.000
1333 4 8.438 8.581 8.571 0.002 0.000 -0.013 -0.000
1334 4 8.607 10.478 10.293 0.001 -0.000 -0.002 0.000
1335 4 10.297 8.522 10.222 -0.003 0.008 -0.004 -0.000
1336 4 10.074 10.687 8.250 -0.002 0.001 -0.001 -0.000
1337 4 12.566 9.079 8.595 0.001 -0.008 0.005 0.000
1338 4 12.080 10.273 10.722 -0.001 0.007 0.005 -0.000
1339 4 14.028 8.672 10.520 0.000 -0.006 -0.003 0.000
1340 4 14.476 10.413 8.607 0.009 0.004 0.008 0.000
1363 4 -1.384 12.133 10.191 -0.003 -0.001 -0.013 0.000
1364 4 -1.168 13.965 8.677 -0.004 -0.004 0.002 0.000
1365 4 0.824 12.222 8.149 -0.002 -0.001 -0.003 0.000
1366 4 0.630 14.623 10.763 0.006 0.002 0.008 0.000
1367 4 2.676 12.771 10.407 0.003 0.001 -0.008 -0.000
1368 4 2.151 14.122 8.358 -0.001 -0.001 -0.000 0.000
1369 4 4.761 12.409 7.766 0.006 -0.010 -0.007 0.000
1370 4 4.608 14.210 10.135 0.003 -0.007 0.009 0.000
1371 4 6.157 12.353 9.880 -0.011 -0.005 0.005 0.000
1372 4 6.360 14.205 8.155 0.005 -0.005 0.016 0.000
1373 4 8.504 12.418 8.480 0.000 -0.004 -0.008 -0.000
1374 4 8.103 14.161 10.171 -0.009 -0.001 -0.009 0.000
1375 4 10.331 12.522 10.114 0.002 -0.009 0.008 -0.000
1376 4 10.404 14.412 8.506 0.006 -0.000 -0.003 -0.000
1377 4 12.536 12.282 8.627 -0.001 -0.002 -0.000 -0.000
1378 4 12.137 14.231 10.382 -0.010 -0.004 0.004 0.000
1379 4 13.958 12.349 10.637 -0.004 0.013 -0.004 -0.000
1380 4 14.393 14.146 8.575 -0.007 -0.002 -0.008 -0.000
1604 4 -1.384 -1.026 12.296 0.001 -0.002 0.003 0.000
1606 4 0.574 -0.631 14.273 0.006 -0.001 0.004 0.000
1608 4 2.245 -0.837 12.702 0.001 0.002 -0.002 0.000
1610 4 5.018 -0.657 14.316 -0.002 0.001 -0.002 0.000
1612 4 6.527 -0.898 12.180 -0.002 -0.003 0.015 -0.000
1614 4 8.186 -0.908 14.244 0.003 0.004 0.004 -0.000
1616 4 10.321 -0.667 12.397 -0.010 0.001 -0.003 -0.000
1618 4 12.558 -1.064 13.879 0.007 -0.006 -0.004 -0.000
1620 4 14.172 -0.572 11.210 -0.012 0.012 0.006 -0.000
1643 4 -1.099 0.964 14.369 0.005 -0.002 0.004 0.000
1644 4 -1.167 2.979 12.239 -0.002 -0.003 0.005 0.000
1645 4 0.586 1.002 12.022 0.005 -0.002 0.002 0.000
1646 4 0.705 3.044 14.129 0.005 0.006 0.002 0.000
1647 4 2.530 1.236 14.146 -0.002 -0.010 -0.009 0.000
1648 4 2.848 2.779 11.991 0.000 0.001 -0.002 -0.000
1649 4 4.641 0.990 11.806 0.000 -0.000 0.001 -0.000
1650 4 4.796 2.444 14.148 -0.004 0.002 0.002 0.000
1651 4 6.672 1.040 14.294 -0.005 0.014 0.011 -0.000
1652 4 6.540 2.685 12.355 0.003 0.004 -0.003 -0.000
1653 4 8.568 0.877 12.480 0.015 0.003 -0.005 -0.000
1654 4 8.653 2.867 14.065 0.005 0.001 0.001 -0.000
1655 4 10.279 1.227 14.122 -0.003 0.009 -0.000 -0.000
1656 4 10.173 3.199 12.476 0.001 -0.003 0.001 0.000
1657 4 12.120 1.107 12.226 -0.001 -0.004 -0.004 0.000
1658 4 12.534 2.806 14.034 -0.007 0.006 0.007 0.000
1659 4 14.068 1.003 13.607 0.004 0.000 -0.008 0.000
1660 4 13.874 2.486 11.825 -0.006 0.005 -0.002 0.000
1683 4 -1.490 4.662 14.247 0.009 0.005 0.002 -0.000
1684 4 -1.109 6.744 12.270 -0.005 -0.003 0.006 0.000
1685 4 0.876 4.696 12.213 0.007 0.001 -0.002 -0.000
1686 4 1.181 6.184 13.973 0.004 0.002 0.000 -0.000
1687 4 2.795 4.629 14.216 0.001 -0.002 0.013 -0.000
1688 4 2.654 6.999 12.409 0.002 -0.006 -0.010 -0.000
1689 4 4.474 4.679 12.481 0.004 -0.004 0.003 -0.000
1690 4 4.450 7.010 14.191 0.012 -0.008 -0.001 -0.000
1691 4 6.179 4.565 14.346 -0.007 -0.002 -0.003 0.000
1692 4 6.257 6.404 12.407 0.007 0.003 -0.004 -0.000
1693 4 8.400 4.784 12.588 0.008 0.008 0.004 -0.000
1694 4 8.378 7.083 14.054 -0.002 0.002 0.004 0.000
1695 4 10.394 4.813 13.848 0.001 -0.000 0.000 0.000
1696 4 10.501 6.620 12.010 0.001 0.002 0.001 -0.000
1697 4 12.511 4.604 12.180 -0.004 0.000 0.012 0.000
1698 4 12.112 6.475 14.283 -0.001 0.003 -0.001 0.000
1699 4 14.110 4.986 14.193 -0.003 0.004 -0.004 0.000
1700 4 14.064 6.828 12.093 -0.003 -0.002 0.004 0.000
1723 4 -0.742 8.635 14.071 -0.008 0.001 -0.008 -0.000
1724 4 -0.772 10.814 11.943 0.004 0.001 -0.001 0.000
1725 4 0.760 8.534 12.073 0.008 -0.003 -0.002 -0.000
1726 4 1.057 10.864 14.082 -0.008 -0.004 0.003 -0.000
1727 4 2.239 8.896 13.915 0.001 0.006 0.005 -0.000
1728 4 2.627 10.595 12.294 0.007 -0.005 0.002 -0.000
1729 4 4.795 8.830 12.309 -0.003 0.007 0.000 -0.000
1730 4 4.514 11.250 14.024 -0.003 0.000 0.009 -0.000
1731 4 6.553 8.584 14.011 0.011 -0.008 -0.011 -0.000
1732 4 6.669 10.741 12.103 0.007 0.005 0.003 0.000
1733 4 7.992 8.496 11.993 0.006 -0.004 -0.002 0.000
1734 4 8.448 10.372 14.124 0.003 -0.003 -0.000 0.000
1735 4 10.288 8.498 14.306 0.007 0.008 -0.007 0.000
1736 4 10.241 10.601 12.438 0.002 0.006 0.003 -0.000
1737 4 11.715 8.598 12.553 -0.006 -0.005 -0.004 -0.000
1738 4 12.374 10.158 14.582 -0.008 -0.004 0.005 -0.000
1739 4 14.130 8.364 13.958 -0.002 -0.011 -0.005 0.000
1740 4 14.428 10.333 12.469 0.000 -0.003 0.004 -0.000
1763 4 -1.221 12.355 14.133 0.001 -0.003 0.000 -0.000
1764 4 -1.579 13.842 12.083 -0.001 0.010 0.005 0.000
1765 4 0.783 12.817 12.237 -0.008 -0.007 0.006 -0.000
1766 4 0.422 14.668 13.920 -0.007 -0.009 -0.004 -0.000
1767 4 2.523 12.777 14.136 -0.006 0.003 -0.007 -0.000
1768 4 2.993 14.641 12.066 -0.000 -0.003 -0.001 0.000
1769 4 4.755 12.866 12.197 0.016 -0.000 0.000 0.000
1770 4 4.734 14.278 14.463 -0.001 -0.001 -0.001 0.000
1771 4 6.623 12.455 14.797 -0.003 -0.001 0.004 0.000
1772 4 6.840 14.427 12.647 -0.004 -0.008 0.010 0.000
1773 4 8.553 12.426 12.060 -0.009 0.006 -0.000 0.000
1774 4 8.703 14.251 14.313 -0.001 -0.006 0.004 0.000
1775 4 10.656 12.444 14.185 -0.000 -0.005 -0.002 0.000
1776 4 9.936 14.305 12.022 0.001 0.003 -0.003 0.000
1777 4 11.997 12.656 12.277 0.005 0.005 0.001 -0.000
1778 4 12.189 14.570 13.927 -0.015 -0.010 0.002 0.000
1779 4 14.111 12.077 14.374 0.003 -0.002 0.003 -0.000
1780 4 14.045 14.191 12.151 0.006 -0.003 -0.001 0.000
2004 4 -1.071 -1.308 16.146 0.004 -0.003 -0.009 0.000
2006 4 0.772 -1.020 17.800 -0.001 -0.003 0.007 0.000
2008 4 3.040 -0.637 16.185 -0.015 0.009 -0.002 0.000
2010 4 4.621 -1.651 18.154 0.017 0.009 -0.004 0.000
2012 4 6.268 -0.915 16.590 0.004 -0.004 0.004 0.000
2014 4 8.357 -0.844 17.727 -0.016 0.002 -0.001 -0.000
2016 4 10.550 -0.735 15.969 -0.001 0.005 -0.006 -0.000
2018 4 12.538 -0.755 17.847 -0.012 0.001 0.004 -0.000
2020 4 14.037 -0.690 16.143 0.012 0.004 -0.010 -0.000
2043 4 -1.054 0.673 17.998 -0.002 -0.005 0.013 -0.000
2044 4 -0.969 2.929 16.428 -0.000 -0.006 -0.001 -0.000
2045 4 0.757 1.108 15.971 0.010 0.001 0.003 0.000
2046 4 0.865 2.600 18.193 0.001 0.000 -0.009 -0.000
2047 4 2.435 0.861 18.181 -0.001 0.002 0.007 -0.000
2048 4 2.567 2.836 16.344 0.009 -0.005 0.002 0.000
2049 4 4.778 1.061 16.164 0.005 -0.001 0.004 0.000
2050 4 4.411 2.166 18.381 0.013 0.008 0.003 0.000
2051 4 6.893 0.941 18.067 -0.009 0.005 0.002 0.000
2052 4 6.666 2.704 16.155 -0.007 -0.007 0.006 0.000
2053 4 8.727 1.152 16.080 0.006 -0.003 -0.008 -0.000
2054 4 8.460 2.667 17.777 0.005 0.010 0.001 0.000
2055 4 10.681 0.878 17.896 -0.002 0.003 -0.001 -0.000
2056 4 10.561 2.818 16.097 -0.007 0.000 -0.011 0.000
2057 4 12.234 1.311 16.093 -0.003 0.011 0.009 -0.000
2058 4 12.049 2.824 18.101 0.000 0.015 -0.009 -0.000
2059 4 13.938 1.053 18.378 0.001 0.005 0.004 -0.000
2060 4 14.216 2.770 16.128 -0.002 -0.004 0.004 0.000
2083 4 -0.933 4.663 18.306 0.012 -0.003 -0.002 -0.000
2084 4 -0.766 6.330 16.291 -0.003 0.000 0.005 -0.000
2085 4 1.140 4.813 16.614 0.000 0.003 0.000 0.000
2086 4 0.860 6.754 18.193 -0.005 -0.002 -0.004 -0.000
2087 4 2.737 4.455 18.506 -0.005 -0.006 -0.000 0.000
2088 4 2.975 6.451 16.270 -0.006 -0.015 0.003 -0.000
2089 4 4.496 4.111 16.167 -0.001 0.001 0.010 0.000
2090 4 4.456 6.504 18.377 -0.002 0.006 0.005 0.000
2091 4 6.082 4.364 18.110 -0.011 -0.005 0.009 0.000
2092 4 5.963 6.343 16.109 -0.001 0.002 -0.001 0.000
2093 4 8.207 4.874 15.680 -0.001 -0.004 0.005 0.000
2094 4 7.975 6.124 17.900 -0.011 0.000 0.001 0.000
2095 4 10.263 4.574 17.977 0.000 0.005 -0.005 0.000
2096 4 10.136 6.575 15.910 0.012 0.006 0.001 0.000
2097 4 12.150 4.528 15.888 -0.003 0.001 -0.003 0.000
2098 4 11.840 6.536 18.005 0.002 0.005 0.005 -0.000
2099 4 14.128 4.544 18.157 0.003 -0.015 0.006 -0.000
2100 4 13.907 6.517 16.619 -0.009 -0.010 -0.000 -0.000
2123 4 -1.322 8.434 17.801 0.001 0.005 -0.012 -0.000
2124 4 -1.060 10.375 16.083 -0.005 -0.006 -0.008 -0.000
2125 4 0.686 8.170 16.080 0.008 0.002 -0.000 -0.000
2126 4 0.985 10.197 18.069 0.012 -0.004 -0.009 -0.000
2127 4 2.744 8.329 18.344 0.001 0.010 0.005 -0.000
2128 4 2.835 10.423 15.609 0.006 0.004 -0.000 -0.000
2129 4 4.486 8.512 16.155 0.000 0.005 -0.003 -0.000
2130 4 4.487 10.226 17.963 -0.008 -0.003 0.002 -0.000
2131 4 6.379 8.462 17.889 0.001 -0.004 -0.005 0.000
2132 4 6.361 10.204 15.891 0.007 -0.005 0.013 -0.000
2133 4 8.165 8.492 15.916 0.004 0.000 0.008 0.000
2134 4 8.370 10.288 17.475 -0.002 -0.003 0.019 -0.000
2135 4 10.123 8.316 17.616 -0.006 -0.012 0.006 0.000
2136 4 10.252 10.490 16.013 -0.005 -0.006 -0.003 -0.000
2137 4 12.151 8.487 16.049 0.001 -0.012 0.001 -0.000
2138 4 11.582 10.372 17.842 0.010 -0.006 -0.007 -0.000
2139 4 13.789 8.355 18.212 0.007 0.001 -0.004 -0.000
2140 4 13.999 10.287 16.529 -0.000 -0.002 0.007 -0.000
2163 4 -1.085 12.481 18.050 -0.010 0.004 -0.002 -0.000
2164 4 -0.952 13.993 15.794 0.000 -0.005 0.004 -0.000
2165 4 1.081 12.567 16.167 -0.003 -0.000 -0.015 -0.000
2166 4 1.043 14.740 17.754 -0.009 -0.005 0.002 -0.000
2167 4 2.807 12.758 18.443 -0.003 0.009 0.003 -0.000
2168 4 2.730 14.495 16.082 0.007 0.002 0.000 -0.000
2169 4 4.671 12.190 16.693 0.002 -0.000 -0.007 -0.000
2170 4 4.702 14.533 17.741 0.003 -0.007 0.005 0.000
2171 4 6.404 12.450 17.847 -0.009 0.002 -0.001 0.000
2172 4 6.835 14.631 16.073 -0.013 0.001 -0.001 0.000
2173 4 8.475 12.494 16.537 0.007 -0.005 0.000 0.000
2174 4 8.669 14.744 18.129 -0.003 0.012 0.004 0.000
2175 4 10.226 12.412 18.224 0.008 0.010 -0.008 -0.000
2176 4 10.221 14.499 16.064 -0.009 0.001 0.009 0.000
2177 4 12.190 12.487 16.317 -0.002 0.007 0.009 -0.000
2178 4 12.243 13.914 18.225 -0.008 0.005 0.011 -0.000
2179 4 14.145 12.146 17.880 0.010 0.005 0.004 -0.000
2180 4 14.240 14.184 15.894 -0.009 -0.006 0.009 -0.000
2404 4 -1.143 -1.224 20.103 -0.005 0.004 0.002 -0.000
2408 4 2.613 -1.179 19.605 0.003 -0.010 0.003 -0.000
2412 4 6.299 -1.136 19.779 0.003 0.004 -0.010 -0.000
2416 4 10.229 -0.972 19.515 0.006 -0.000 -0.002 -0.000
2420 4 13.737 -1.384 19.830 0.002 -0.010 -0.010 -0.000
2444 4 -1.337 2.607 20.241 0.002 0.012 -0.006 -0.000
2445 4 0.828 0.612 19.970 0.003 -0.007 0.006 -0.000
2448 4 2.626 2.526 20.414 0.001 -0.002 -0.007 -0.000
2449 4 4.520 0.959 20.533 0.006 -0.003 0.010 -0.000
2452 4 6.599 2.476 19.846 0.003 -0.002 0.001 0.000
2453 4 8.829 1.061 19.809 -0.002 -0.012 -0.000 -0.000
2456 4 10.294 3.223 20.031 -0.004 0.011 -0.007 -0.000
2457 4 11.799 1.277 20.004 0.005 0.002 -0.005 -0.000
2460 4 13.974 2.893 20.045 0.004 0.000 -0.002 -0.000
2484 4 -1.142 6.414 19.952 -0.009 0.011 0.006 -0.000
2485 4 0.942 4.617 20.346 0.001 -0.001 0.001 0.000
2488 4 2.665 6.329 20.181 -0.002 -0.001 -0.004 0.000
2489 4 4.754 4.170 20.130 0.010 -0.009 -0.005 0.000
2492 4 6.561 6.545 19.612 -0.009 0.006 0.001 0.000
2493 4 8.198 4.263 19.831 0.002 -0.009 0.015 0.000
2496 4 10.107 6.191 19.849 0.003 0.009 -0.007 0.000
2497 4 12.413 4.935 20.288 0.003 0.001 -0.003 -0.000
2500 4 13.959 6.427 20.075 0.005 -0.006 -0.003 -0.000
2524 4 -1.270 10.688 19.678 -0.001 0.006 0.007 -0.000
2525 4 0.518 8.621 19.803 -0.004 -0.007 -0.002 -0.000
2528 4 3.022 10.215 19.771 -0.002 -0.012 -0.004 -0.000
2529 4 4.578 8.266 20.027 0.009 -0.004 -0.007 0.000
2532 4 6.229 10.614 19.762 -0.003 -0.005 -0.001 -0.000
2533 4 8.351 8.184 19.673 0.012 -0.001 -0.003 0.000
2536 4 10.015 10.194 19.663 0.006 0.006 0.004 -0.000
2537 4 11.852 8.269 20.209 0.001 0.013 -0.002 -0.000
2540 4 13.911 10.038 19.722 -0.003 0.001 -0.008 -0.000
2564 4 -0.818 14.287 19.685 0.002 0.002 0.001 -0.000
2565 4 0.679 12.371 19.772 0.001 -0.000 -0.004 -0.000
2568 4 2.034 14.712 20.210 -0.005 0.003 -0.001 -0.000
2569 4 4.968 12.469 19.591 0.000 0.005 0.003 0.000
2572 4 6.596 14.486 19.931 -0.006 -0.006 -0.010 0.000
2573 4 8.322 12.541 19.216 -0.002 0.003 0.004 0.000
2576 4 10.519 14.324 19.947 -0.004 0.001 -0.003 0.000
2577 4 12.082 12.016 19.907 0.010 -0.002 -0.004 -0.000
2580 4 14.218 13.981 19.590 0.004 0.005 0.009 -0.000
2498 4 12.018 6.671 22.027 0.007 -0.003 -0.002 -0.000
2527 4 2.831 8.748 21.666 0.001 -0.010 -0.000 0.000
2499 4 13.994 4.665 22.252 -0.000 0.002 -0.003 -0.000
2566 4 0.398 14.467 21.844 -0.004 0.005 -0.019 -0.000
2570 4 4.528 14.280 21.305 0.005 0.005 -0.001 0.000
2575 4 10.268 12.367 21.746 -0.001 -0.001 0.001 0.000
2494 4 8.329 6.270 21.638 -0.004 0.010 -0.001 0.000
2535 4 10.136 8.463 21.675 -0.003 0.000 0.001 0.000
2447 4 2.628 0.729 22.241 0.003 0.001 0.000 -0.000
2530 4 4.720 10.603 21.603 -0.002 0.001 0.000 0.000
2563 4 -0.654 12.259 22.039 0.001 0.003 0.012 -0.000
2567 4 3.278 12.494 21.260 0.004 -0.012 -0.002 0.000
2526 4 0.913 10.713 21.935 0.004 0.006 -0.003 -0.000
2578 4 12.049 14.079 21.713 0.003 0.004 -0.010 0.000
2450 4 4.722 2.712 22.148 0.004 -0.008 0.009 -0.000
2534 4 8.505 10.670 21.531 -0.001 0.014 -0.000 0.000
2446 4 0.698 2.624 21.687 0.007 0.009 -0.003 -0.000
2571 4 6.484 12.465 21.391 -0.003 -0.006 -0.003 0.000
2574 4 8.665 14.370 21.562 0.000 -0.003 0.001 0.000
2523 4 -0.976 8.141 21.786 0.000 -0.003 0.000 0.000
2579 4 13.847 12.176 21.957 -0.012 -0.000 -0.000 -0.000
2539 4 13.891 8.145 21.931 -0.008 0.001 0.003 -0.000
2490 4 4.713 6.595 21.582 -0.000 -0.005 0.003 0.000
2454 4 8.116 2.663 21.876 0.001 -0.002 -0.003 -0.000
2531 4 6.595 8.400 21.533 -0.005 0.001 -0.002 0.000
2495 4 10.041 4.641 21.932 0.008 0.001 -0.005 -0.000
2414 4 8.534 -1.005 21.644 -0.002 -0.006 0.006 -0.000
2406 4 0.754 -1.079 21.950 0.003 -0.003 -0.001 0.000
2418 4 12.017 -1.279 22.103 -0.009 -0.007 -0.000 -0.000
2455 4 10.145 0.904 21.880 -0.004 0.004 -0.011 -0.000
2486 4 0.705 6.527 21.888 -0.004 0.002 0.005 0.000
2487 4 2.797 4.819 22.114 0.002 0.002 -0.008 0.000
2458 4 12.090 3.078 21.962 -0.009 0.005 -0.006 -0.000
2443 4 -1.124 0.657 21.897 -0.001 -0.007 0.002 -0.000
2491 4 6.192 4.671 21.508 -0.002 -0.009 0.011 0.000
2451 4 6.669 0.334 22.178 -0.006 -0.000 -0.007 -0.000
2410 4 4.527 -1.161 21.732 0.008 -0.003 -0.009 -0.000
2502 4 16.028 6.252 22.250 -0.004 -0.004 0.007 -0.000
2522 4 -3.045 10.521 21.984 -0.003 0.007 0.014 -0.000
137 4 12.168 8.239 -2.589 0.012 0.002 -0.005 -0.000
62 4 15.947 2.368 -1.423 -0.001 -0.006 -0.010 -0.000
613 4 8.839 15.947 0.954 -0.005 0.005 0.001 -0.000
85 4 1.375 4.393 -2.743 -0.005 0.000 0.005 0.000
2162 4 -2.812 14.196 17.846 -0.002 -0.006 -0.005 -0.000
1722 4 -2.909 10.461 13.937 0.002 -0.008 0.000 0.000
1215 4 10.063 -2.887 10.511 -0.008 0.003 0.006 -0.000
2538 4 11.915 10.211 21.316 0.004 -0.001 0.010 0.000
3 4 -1.497 -2.933 -0.768 -0.006 -0.002 0.007 0.000
84 4 -1.144 6.588 -2.626 -0.005 -0.001 -0.005 0.000
1662 4 15.800 2.697 13.941 -0.004 0.001 0.005 0.000
2122 4 -2.688 10.290 17.851 0.003 0.017 0.002 -0.000
811 4 6.429 -2.748 6.371 0.000 -0.000 -0.005 -0.000
2483 4 -1.240 4.786 21.745 0.006 -0.012 0.008 -0.000
125 4 0.263 8.776 -2.369 0.001 0.006 -0.001 0.000
16 4 9.540 -0.904 -3.001 0.010 0.001 -0.006 -0.000
462 4 16.056 2.624 2.607 -0.003 -0.011 -0.006 0.000
102 4 15.949 6.286 -1.265 0.002 -0.008 0.006 0.000
162 4 -2.796 14.319 -1.350 0.005 -0.001 0.006 -0.000
617 4 12.370 15.940 0.626 0.014 -0.010 -0.003 -0.000
601 4 -2.702 15.507 0.774 -0.010 -0.003 -0.007 -0.000
1611 4 6.509 -2.796 14.592 -0.009 -0.007 -0.010 -0.000
132 4 6.232 10.247 -2.963 -0.004 -0.001 0.002 0.000
49 4 4.226 1.126 -2.903 0.014 -0.002 -0.001 -0.000
501 4 15.826 4.312 0.703 0.002 0.001 0.001 0.000
2062 4 15.905 2.901 18.014 0.006 -0.002 -0.009 0.000
2061 4 15.604 0.983 15.704 0.008 -0.006 0.007 0.000
1213 4 8.076 -2.901 8.234 -0.013 -0.003 0.005 -0.000
1617 4 12.423 -2.590 11.717 -0.005 0.008 -0.004 -0.000
140 4 13.982 10.360 -2.756 0.003 -0.006 -0.012 0.000
88 4 2.593 6.554 -2.812 -0.014 -0.000 -0.004 0.000
461 4 15.971 0.763 1.028 -0.004 0.001 0.002 0.000
2181 4 15.982 12.148 15.938 0.001 0.003 -0.005 -0.000
2581 4 15.968 12.461 19.789 0.001 0.001 -0.008 -0.000
2521 4 -2.680 8.298 19.917 -0.000 0.000 -0.000 0.000
1241 4 -2.689 0.961 8.424 0.004 0.014 0.004 0.000
2402 4 -2.908 -1.453 21.830 -0.010 -0.002 0.003 0.000
1609 4 4.857 -2.715 12.200 0.004 0.000 0.003 -0.000
2459 4 13.727 1.007 21.769 0.004 0.011 0.011 -0.000
128 4 2.548 10.899 -2.771 -0.003 -0.001 -0.002 -0.000
129 4 4.456 8.545 -2.720 0.003 -0.003 0.000 -0.000
1742 4 15.909 10.233 14.409 0.003 -0.002 0.003 -0.000
2022 4 15.886 -0.653 18.283 -0.007 0.001 0.001 0.000
2501 4 15.732 4.678 19.883 0.004 0.012 0.002 -0.000
2542 4 15.967 10.648 21.567 -0.005 0.000 -0.008 -0.000
2561 4 -2.761 12.639 19.907 0.008 0.001 -0.002 -0.000
2041 4 -2.819 1.225 16.139 -0.005 -0.003 -0.010 -0.000