ITEM: TIMESTEP
54000
ITEM: NUMBER OF ATOMS
32000
ITEM: BOX BOUNDS pp pp pp
-2.965027 73.445027
-3.069298 73.549298
-3.023558 73.503558
ITEM: ATOMS id type x y z vx vy vz q
6 4 1.184 -1.204 -1.232 -0.001 0.002 -0.000 -0.000
10 4 4.568 -1.516 -1.552 -0.006 0.012 -0.000 0.000
14 4 8.385 -1.232 -0.960 0.003 0.006 -0.003 0.000
18 4 12.308 -1.238 -1.149 -0.013 0.004 -0.002 0.000
43 4 -0.884 0.993 -1.345 0.008 -0.006 0.005 -0.000
46 4 1.420 2.885 -1.353 0.003 -0.000 0.002 -0.000
47 4 2.985 0.435 -1.481 0.004 0.000 0.002 0.000
50 4 4.540 2.728 -1.140 0.006 0.008 -0.017 0.000
51 4 6.534 0.444 -0.954 0.007 0.002 0.003 0.000
54 4 8.318 2.412 -1.239 0.005 -0.004 -0.004 -0.000
55 4 10.674 0.517 -1.082 0.011 -0.012 0.004 0.000
58 4 12.275 2.476 -0.969 -0.008 -0.012 0.005 -0.000
59 4 14.532 0.417 -1.040 -0.003 -0.005 -0.005 -0.000
83 4 -1.265 4.664 -1.014 -0.004 -0.001 0.006 -0.000
86 4 1.149 6.369 -1.106 -0.003 0.006 -0.002 -0.000
87 4 2.897 4.533 -0.740 -0.004 0.002 0.005 -0.000
90 4 4.799 6.697 -0.642 0.005 -0.006 -0.001 -0.000
91 4 6.676 4.235 -0.764 0.004 -0.002 0.001 -0.000
94 4 8.556 6.796 -1.309 -0.007 -0.005 0.001 -0.000
95 4 10.245 4.653 -1.724 0.002 -0.005 -0.006 0.000
98 4 12.948 6.234 -1.231 -0.008 -0.003 -0.006 0.000
99 4 14.566 4.622 -0.781 -0.006 -0.000 -0.002 -0.000
123 4 -0.884 8.387 -1.039 0.002 0.010 0.005 -0.000
126 4 0.591 10.356 -0.855 0.003 -0.008 -0.011 -0.000
127 4 3.105 8.346 -0.942 0.006 -0.008 0.007 0.000
130 4 4.839 10.486 -0.954 0.013 0.004 -0.003 0.000
131 4 6.792 8.274 -1.042 0.005 0.008 -0.007 0.000
134 4 8.682 10.234 -0.815 0.020 -0.000 0.008 -0.000
135 4 10.742 8.597 -1.364 -0.004 0.010 -0.004 -0.000
138 4 12.390 10.363 -0.877 0.002 -0.009 -0.004 -0.000
139 4 14.342 8.759 -1.008 0.006 0.008 -0.008 -0.000
163 4 -0.930 12.220 -0.808 0.002 0.007 -0.000 -0.000
166 4 0.859 14.028 -0.821 -0.008 -0.008 -0.004 -0.000
167 4 2.699 12.089 -0.981 -0.013 -0.006 0.007 -0.000
170 4 4.499 13.749 -0.829 -0.000 0.006 0.005 -0.000
171 4 6.632 12.127 -0.545 -0.001 -0.005 0.009 -0.000
174 4 8.749 14.370 -1.174 0.000 0.007 0.004 0.000
175 4 10.538 12.371 -1.044 -0.004 0.004 -0.010 0.000
178 4 12.497 14.081 -0.708 0.004 0.005 0.004 0.000
179 4 14.467 12.485 -0.961 0.001 -0.003 -0.007 -0.000
404 4 -0.505 -1.536 0.666 -0.011 0.004 -0.005 -0.000
406 4 1.137 -1.127 2.434 0.001 0.006 0.003 -0.000
408 4 2.727 -1.260 0.645 -0.008 0.001 0.009 0.000
410 4 4.609 -1.209 2.818 -0.002 -0.002 -0.001 -0.000
412 4 6.379 -1.565 0.636 0.008 -0.007 0.005 0.000
414 4 8.142 -1.492 2.595 -0.000 0.002 0.001 -0.000
416 4 10.513 -1.425 0.735 -0.010 0.001 -0.002 0.000
418 4 12.507 -1.446 2.711 0.001 -0.005 0.000 -0.000
420 4 14.864 -1.497 0.683 -0.004 0.005 -0.006 -0.000
443 4 -0.872 0.732 2.369 0.009 0.007 0.009 -0.000
444 4 -0.988 3.057 1.013 -0.003 -0.003 -0.002 -0.000
445 4 0.796 0.790 0.710 -0.002 0.006 0.005 -0.000
446 4 1.085 2.473 2.673 0.006 -0.005 -0.012 0.000
447 4 2.845 0.425 2.674 -0.002 0.004 -0.008 0.000
448 4 2.981 2.144 0.871 -0.004 -0.006 -0.001 0.000
449 4 4.910 0.590 0.842 -0.001 -0.006 -0.008 0.000
450 4 4.650 2.757 2.819 -0.005 0.005 0.002 0.000
451 4 6.415 0.550 2.596 -0.004 0.004 0.001 0.000
452 4 6.777 2.502 1.267 -0.005 0.002 -0.005 -0.000
453 4 8.578 0.504 0.875 -0.006 -0.001 -0.007 0.000
454 4 8.951 2.388 2.511 0.005 -0.004 0.008 -0.000
455 4 10.715 0.295 2.415 0.005 0.002 -0.002 -0.000
456 4 10.380 2.286 0.368 0.005 -0.003 0.004 -0.000
457 4 12.530 0.404 0.669 -0.006 -0.007 0.008 -0.000
458 4 12.070 2.360 1.886 -0.000 0.001 -0.005 -0.000
459 4 14.004 0.895 3.161 0.001 0.004 0.006 -0.000
460 4 14.292 2.645 0.509 0.014 -0.004 -0.000 -0.000
483 4 -1.090 4.529 3.018 0.001 -0.009 0.014 0.000
484 4 -0.578 6.204 0.702 -0.001 -0.006 0.009 -0.000
485 4 1.007 4.537 0.886 -0.006 0.002 0.008 -0.000
486 4 1.080 6.041 2.711 0.004 0.005 -0.009 0.000
487 4 3.064 4.406 2.808 0.004 0.009 0.003 0.000
488 4 2.684 6.264 0.962 -0.002 -0.009 0.006 -0.000
489 4 4.773 4.721 0.724 -0.008 0.003 0.001 -0.000
490 4 4.656 6.517 2.801 -0.000 0.003 -0.007 0.000
491 4 6.439 4.544 2.628 -0.005 -0.001 -0.005 -0.000
492 4 6.888 6.630 0.957 0.008 0.002 -0.004 -0.000
493 4 8.804 4.305 0.676 -0.002 -0.003 -0.005 -0.000
494 4 8.946 6.320 2.598 -0.004 -0.000 -0.002 -0.000
495 4 10.553 4.331 2.595 0.003 0.013 -0.008 -0.000
496 4 10.897 6.497 0.127 -0.007 -0.003 0.003 0.000
497 4 12.339 4.383 0.574 0.009 -0.003 0.001 -0.000
498 4 12.063 6.382 2.495 -0.011 0.002 -0.009 0.000
499 4 14.010 4.103 2.591 -0.000 -0.006 -0.004 -0.000
500 4 14.435 6.465 0.930 -0.006 0.005 0.005 0.000
523 4 -0.386 8.160 2.519 -0.009 -0.007 0.005 0.000
524 4 -0.755 10.347 1.307 0.002 -0.006 -0.002 -0.000
525 4 0.845 8.196 0.554 0.004 -0.002 0.002 -0.000
526 4 0.937 10.601 3.363 0.005 0.001 -0.005 0.000
527 4 2.857 8.026 2.825 0.003 0.003 -0.004 0.000
528 4 2.504 10.266 1.229 -0.005 -0.003 -0.003 -0.000
529 4 4.762 8.255 0.856 -0.008 0.001 -0.002 0.000
530 4 4.513 10.032 2.579 -0.011 -0.003 0.002 0.000
531 4 6.651 8.314 2.604 -0.007 0.007 0.008 -0.000
532 4 6.813 10.196 1.133 -0.007 0.002 0.003 -0.000
533 4 8.654 8.140 0.763 -0.001 0.011 -0.011 -0.000
534 4 8.630 10.203 2.742 0.006 0.004 -0.006 -0.000
535 4 10.488 8.378 2.600 0.016 0.009 -0.011 0.000
536 4 10.450 10.489 0.984 -0.001 -0.001 -0.001 -0.000
537 4 12.431 8.423 1.043 0.010 0.005 0.003 0.000
538 4 12.671 10.173 2.731 -0.010 -0.005 0.001 0.000
539 4 14.292 8.118 2.519 -0.001 0.011 0.001 0.000
540 4 14.348 10.458 0.979 0.002 0.000 -0.005 0.000
563 4 -0.943 12.300 2.888 0.006 0.004 -0.010 -0.000
564 4 -1.018 14.644 1.470 0.008 0.002 -0.008 0.000
565 4 0.921 12.390 1.177 0.003 -0.007 -0.007 -0.000
566 4 1.032 14.094 2.700 0.000 -0.011 0.004 -0.000
567 4 2.860 12.113 2.992 -0.003 -0.002 0.001 0.000
568 4 2.838 13.929 0.901 -0.002 0.005 0.010 -0.000
569 4 4.694 12.122 1.244 -0.003 -0.016 -0.000 -0.000
570 4 4.795 14.180 2.818 0.006 0.004 0.015 0.000
571 4 6.802 12.250 2.473 0.003 0.000 0.004 -0.000
572 4 7.084 14.309 0.895 -0.003 -0.005 0.003 0.000
573 4 9.029 12.383 1.157 0.009 0.002 -0.006 -0.000
574 4 8.877 14.148 2.692 0.006 -0.001 -0.003 0.000
575 4 10.755 11.945 2.989 -0.001 0.009 -0.003 0.000
576 4 10.504 14.107 0.523 0.004 0.006 0.007 0.000
577 4 12.558 12.225 1.079 0.009 0.010 0.001 0.000
578 4 12.157 14.195 2.896 -0.004 0.009 -0.002 0.000
579 4 14.410 12.453 2.781 -0.005 0.004 0.002 0.000
580 4 14.594 14.015 1.024 0.009 -0.002 0.005 0.000
804 4 -1.116 -1.159 4.977 0.002 0.012 0.012 0.000
806 4 1.059 -1.286 6.909 -0.004 -0.003 -0.007 -0.000
808 4 2.757 -1.251 4.518 0.001 -0.006 -0.010 0.000
810 4 4.738 -0.546 6.443 0.004 -0.003 0.008 0.000
812 4 6.902 -1.177 4.557 -0.004 -0.011 0.002 -0.000
814 4 8.630 -1.097 6.635 -0.005 -0.004 -0.005 0.000
816 4 10.305 -1.515 4.676 0.002 0.004 0.005 -0.000
818 4 12.321 -1.010 6.834 0.004 0.001 0.008 0.000
820 4 14.280 -1.176 4.670 -0.009 -0.011 0.005 0.000
843 4 -0.590 0.814 6.780 -0.004 -0.008 -0.001 -0.000
844 4 -1.098 2.663 4.813 -0.012 -0.001 0.000 -0.000
845 4 0.774 0.728 4.732 0.005 -0.015 -0.011 0.000
846 4 1.106 2.770 6.610 0.005 0.005 -0.006 -0.000
847 4 2.887 0.858 6.535 0.002 -0.003 0.009 -0.000
848 4 2.694 2.383 4.220 -0.001 -0.002 0.002 0.000
849 4 4.796 0.829 4.393 -0.002 0.003 -0.017 0.000
850 4 4.763 2.641 6.492 0.003 -0.001 0.005 0.000
851 4 6.858 0.786 6.663 0.014 0.004 0.004 0.000
852 4 6.459 2.687 4.812 0.000 0.004 0.006 0.000
853 4 8.752 0.536 4.663 0.004 0.004 -0.003 -0.000
854 4 8.771 2.807 6.559 -0.001 -0.004 -0.008 -0.000
855 4 10.221 0.931 6.801 -0.005 -0.002 -0.008 0.000
856 4 10.628 2.666 4.530 -0.000 -0.002 -0.007 0.000
857 4 11.886 0.321 4.807 0.008 0.003 -0.005 0.000
858 4 12.225 2.722 6.615 0.005 0.005 -0.003 0.000
859 4 14.282 0.922 6.507 -0.005 -0.010 -0.005 0.000
860 4 13.672 2.519 5.060 0.011 0.005 -0.008 0.000
883 4 -0.761 4.304 6.356 -0.003 0.007 0.008 -0.000
884 4 -0.790 6.379 4.224 0.001 -0.005 -0.007 0.000
885 4 1.027 4.374 4.366 0.012 -0.003 0.002 0.000
886 4 0.831 6.088 6.357 0.010 0.001 -0.003 -0.000
887 4 2.882 4.417 6.234 -0.006 -0.014 0.008 -0.000
888 4 2.766 6.374 4.725 0.010 -0.001 0.005 0.000
889 4 5.150 4.844 4.406 0.004 -0.003 0.009 0.000
890 4 4.864 6.652 6.157 -0.001 -0.001 0.001 -0.000
891 4 6.543 5.073 6.290 -0.000 0.005 -0.012 -0.000
892 4 6.543 6.568 4.187 -0.000 0.009 -0.006 -0.000
893 4 8.755 4.663 4.287 -0.001 -0.004 -0.006 -0.000
894 4 8.841 6.511 6.054 -0.003 0.004 0.001 -0.000
895 4 10.472 4.771 6.415 0.003 -0.001 0.005 0.000
896 4 10.548 6.468 4.407 0.007 0.004 0.008 0.000
897 4 12.723 4.540 4.791 -0.002 -0.002 -0.008 0.000
898 4 12.549 6.613 6.820 -0.000 -0.002 0.003 -0.000
899 4 14.304 4.793 6.723 -0.006 0.009 0.006 0.000
900 4 14.560 6.510 4.764 -0.001 -0.000 -0.004 0.000
923 4 -1.124 8.370 7.093 -0.005 -0.002 0.001 0.000
924 4 -0.798 10.076 5.030 -0.000 -0.001 0.002 0.000
925 4 0.920 8.244 4.973 -0.001 -0.003 -0.012 0.000
926 4 0.986 10.085 6.731 0.005 0.005 -0.007 0.000
927 4 2.939 8.140 6.546 0.002 0.006 -0.004 -0.000
928 4 3.107 10.155 4.742 0.000 0.004 -0.003 0.000
929 4 5.007 8.495 4.354 0.008 -0.006 -0.002 0.000
930 4 5.451 10.471 6.405 0.002 0.006 0.001 -0.000
931 4 6.948 8.439 6.035 0.008 -0.003 -0.002 -0.000
932 4 6.497 10.376 4.288 -0.003 -0.003 -0.003 -0.000
933 4 8.692 8.269 4.018 -0.009 -0.007 -0.010 -0.000
934 4 8.295 10.024 6.680 -0.003 -0.004 -0.005 -0.000
935 4 10.701 8.446 6.108 -0.004 -0.005 0.002 0.000
936 4 10.724 9.967 4.326 -0.008 0.003 0.003 0.000
937 4 12.579 7.843 4.546 -0.004 0.002 -0.006 0.000
938 4 12.823 9.589 6.605 -0.005 -0.003 0.003 0.000
939 4 14.682 8.025 6.678 -0.007 -0.001 -0.002 -0.000
940 4 14.266 9.597 4.488 -0.006 -0.008 -0.002 -0.000
963 4 -1.195 11.930 6.701 0.003 -0.007 -0.012 -0.000
964 4 -1.136 14.046 5.010 -0.000 0.005 0.002 -0.000
965 4 0.888 12.621 5.336 -0.001 -0.008 0.006 -0.000
966 4 1.032 14.547 7.189 -0.015 -0.000 0.004 -0.000
967 4 2.992 12.209 6.844 -0.001 0.003 0.002 0.000
968 4 3.043 14.462 4.809 -0.008 -0.010 -0.003 0.000
969 4 5.000 12.364 4.460 -0.004 -0.003 -0.004 0.000
970 4 4.935 14.044 6.241 -0.004 -0.004 -0.005 0.000
971 4 7.163 11.953 6.699 0.003 0.005 0.002 -0.000
972 4 6.635 13.855 4.739 0.001 0.009 0.002 0.000
973 4 8.704 12.200 4.503 0.006 0.005 -0.008 -0.000
974 4 8.873 14.000 6.395 0.001 0.014 -0.010 -0.000
975 4 10.574 11.342 6.349 0.003 0.008 -0.000 0.000
976 4 10.740 13.875 4.942 -0.002 0.000 -0.008 -0.000
977 4 12.467 11.779 4.921 -0.004 -0.001 -0.002 0.000
978 4 12.547 13.927 6.373 -0.002 -0.005 0.002 0.000
979 4 14.139 11.949 6.629 -0.008 -0.005 -0.003 -0.000
980 4 14.044 14.307 4.633 0.000 0.014 0.010 -0.000
1204 4 -1.134 -0.982 8.534 -0.002 0.002 0.010 0.000
1206 4 0.764 -1.376 10.126 -0.002 0.008 0.016 -0.000
1208 4 3.244 -1.194 8.596 0.002 0.009 0.002 0.000
1210 4 4.403 -1.543 10.893 -0.009 0.003 -0.000 0.000
1212 4 6.483 -1.517 8.850 0.001 0.011 -0.001 0.000
1214 4 8.497 -1.114 10.417 -0.008 0.003 -0.007 0.000
1216 4 10.311 -0.974 8.506 -0.003 -0.000 0.000 -0.000
1218 4 12.604 -0.957 10.100 0.004 0.007 0.004 0.000
1220 4 14.195 -0.572 8.475 -0.006 -0.012 -0.010 0.000
1243 4 -1.020 0.691 10.611 0.000 0.004 0.000 -0.000
1244 4 -0.678 2.357 8.785 0.002 -0.001 0.001 0.000
1245 4 1.457 0.763 8.497 -0.006 -0.000 0.003 -0.000
1246 4 1.425 2.482 10.113 0.004 -0.006 -0.004 0.000
1247 4 2.829 0.510 10.479 0.000 -0.010 -0.004 0.000
1248 4 3.034 2.577 8.091 0.006 -0.001 0.000 -0.000
1249 4 4.680 0.704 8.369 0.005 0.000 -0.000 0.000
1250 4 4.593 2.361 10.666 0.001 0.002 -0.004 0.000
1251 4 6.657 0.834 10.566 0.000 -0.005 -0.008 0.000
1252 4 6.351 2.655 8.358 0.001 -0.004 0.006 0.000
1253 4 8.292 1.042 8.564 -0.009 -0.004 -0.003 0.000
1254 4 8.459 2.835 10.555 -0.004 0.005 -0.002 -0.000
1255 4 10.175 1.063 10.067 -0.001 -0.004 0.000 0.000
1256 4 10.503 3.055 8.345 -0.002 0.002 -0.006 -0.000
1257 4 12.142 0.819 8.404 0.009 -0.008 -0.006 0.000
1258 4 12.061 2.461 10.364 -0.002 0.002 -0.013 -0.000
1259 4 14.347 1.155 10.258 -0.003 0.006 0.008 0.000
1260 4 14.093 2.549 8.457 -0.011 -0.008 0.012 0.000
1283 4 -0.834 4.236 10.531 -0.010 -0.001 -0.005 0.000
1284 4 -0.818 6.142 8.625 -0.002 -0.002 -0.003 -0.000
1285 4 1.123 4.391 8.627 0.002 -0.007 -0.001 -0.000
1286 4 1.103 6.259 10.161 -0.007 0.006 -0.008 -0.000
1287 4 2.815 4.289 10.394 -0.006 0.007 0.002 0.000
1288 4 3.014 6.309 8.069 -0.010 0.008 0.005 -0.000
1289 4 5.102 4.661 8.512 0.004 -0.008 -0.000 -0.000
1290 4 4.831 6.320 10.392 -0.003 0.008 -0.002 -0.000
1291 4 6.831 4.944 9.956 -0.004 0.004 -0.001 -0.000
1292 4 6.969 6.687 8.298 0.002 -0.003 -0.003 -0.000
1293 4 8.449 4.747 8.110 0.001 -0.004 0.005 -0.000
1294 4 8.397 6.686 10.596 0.002 0.005 -0.001 -0.000
1295 4 10.150 4.588 10.417 -0.003 0.004 0.004 -0.000
1296 4 9.890 6.919 8.336 0.004 0.013 -0.003 0.000
1297 4 12.380 4.638 8.191 0.002 0.009 -0.009 0.000
1298 4 12.074 6.436 10.523 -0.003 -0.004 -0.000 -0.000
1299 4 14.315 4.288 10.508 0.003 0.003 -0.001 -0.000
1300 4 14.003 6.407 8.860 0.001 0.004 -0.010 -0.000
1323 4 -1.253 8.401 10.383 0.007 -0.004 -0.000 0.000
1324 4 -1.500 9.945 8.837 0.002 -0.009 -0.006 0.000
1325 4 1.197 7.946 8.155 -0.004 -0.006 0.001 -0.000
1326 4 0.982 10.335 10.230 -0.003 -0.004 0.006 0.000
1327 4 2.689 8.154 10.303 0.004 -0.003 -0.002 -0.000
1328 4 3.020 10.112 8.500 -0.004 0.002 -0.004 -0.000
1329 4 4.743 8.239 8.596 0.004 -0.004 -0.012 -0.000
1330 4 4.692 10.214 10.298 -0.001 -0.001 0.001 0.000
1331 4 6.280 8.152 10.305 0.002 0.003 0.004 0.000
1332 4 6.602 10.316 8.745 -0.011 0.003 0.008 -0.000
1333 4 8.116 8.556 8.810 -0.003 -0.006 -0.004 0.000
1334 4 8.594 10.359 10.608 -0.015 0.011 -0.000 0.000
1335 4 10.341 8.298 10.471 -0.002 -0.003 0.009 0.000
1336 4 10.503 10.025 8.501 0.004 -0.003 -0.003 0.000
1337 4 12.048 8.234 8.499 0.003 -0.007 -0.005 0.000
1338 4 12.126 10.380 10.700 0.001 -0.008 -0.006 0.000
1339 4 13.921 8.281 10.931 0.009 0.005 -0.012 -0.000
1340 4 14.048 9.884 8.869 0.008 0.014 0.002 -0.000
1363 4 -0.878 12.058 10.672 -0.001 0.002 0.003 0.000
1364 4 -1.223 13.931 8.617 0.006 -0.003 -0.001 -0.000
1365 4 0.791 12.085 8.135 -0.002 0.006 0.003 -0.000
1366 4 1.213 14.554 10.628 0.004 -0.010 0.001 -0.000
1367 4 2.804 12.350 10.532 -0.002 -0.008 0.007 -0.000
1368 4 3.140 14.153 8.849 -0.002 0.005 0.002 0.000
1369 4 4.882 12.244 8.567 -0.005 0.016 -0.004 -0.000
1370 4 5.178 14.423 10.580 0.004 -0.010 0.007 0.000
1371 4 6.790 12.578 10.276 -0.002 0.002 0.007 0.000
1372 4 6.522 13.886 8.262 -0.005 0.008 0.014 0.000
1373 4 8.986 12.397 8.465 -0.003 0.003 0.002 0.000
1374 4 8.889 14.343 10.317 0.007 0.008 0.002 0.000
1375 4 10.430 12.358 10.752 -0.009 0.001 0.002 0.000
1376 4 10.526 14.214 8.324 -0.005 -0.001 0.001 0.000
1377 4 12.085 11.942 8.012 0.001 -0.002 -0.005 0.000
1378 4 12.187 14.313 10.437 -0.001 -0.001 -0.004 -0.000
1379 4 13.860 12.398 10.347 -0.001 -0.006 -0.001 0.000
1380 4 13.631 13.935 8.444 0.007 0.006 0.008 0.000
1604 4 -0.767 -1.077 12.116 0.004 -0.009 -0.008 0.000
1606 4 0.916 -1.156 14.070 0.000 0.001 -0.009 -0.000
1608 4 2.923 -0.803 12.862 -0.003 -0.001 0.010 -0.000
1610 4 4.729 -1.368 14.622 -0.005 -0.005 -0.004 -0.000
1612 4 6.800 -1.271 12.663 0.002 -0.013 -0.006 -0.000
1614 4 8.467 -1.412 14.329 0.002 -0.005 0.000 0.000
1616 4 10.427 -1.405 12.328 0.010 0.009 -0.003 0.000
1618 4 12.389 -1.178 14.132 0.007 0.005 0.001 -0.000
1620 4 14.147 -1.224 12.324 -0.001 -0.001 0.000 0.000
1643 4 -0.931 0.731 14.301 0.008 -0.005 0.010 -0.000
1644 4 -0.846 2.563 12.887 0.008 0.004 -0.001 0.000
1645 4 1.030 0.904 12.253 -0.006 0.002 -0.003 0.000
1646 4 1.166 2.936 14.330 -0.002 -0.006 -0.005 -0.000
1647 4 2.827 1.240 14.324 -0.009 -0.004 0.010 -0.000
1648 4 3.014 2.917 12.306 0.005 0.002 0.002 0.000
1649 4 4.738 0.635 12.348 0.002 -0.009 -0.001 0.000
1650 4 4.859 2.660 14.339 0.006 -0.001 -0.003 0.000
1651 4 6.742 0.642 14.401 -0.003 0.001 -0.003 -0.000
1652 4 6.761 2.695 12.462 0.001 -0.001 -0.003 0.000
1653 4 8.814 0.857 12.232 0.001 0.009 -0.004 -0.000
1654 4 8.590 2.509 14.590 -0.010 -0.007 -0.007 -0.000
1655 4 10.615 0.638 14.480 0.003 0.001 0.007 0.000
1656 4 10.510 2.622 12.796 -0.002 -0.002 -0.002 -0.000
1657 4 11.866 0.695 12.108 0.009 -0.007 -0.007 -0.000
1658 4 12.520 2.649 14.506 -0.006 0.016 -0.013 -0.000
1659 4 14.267 0.985 14.302 0.003 0.013 -0.010 0.000
1660 4 14.136 2.675 12.523 -0.009 -0.003 0.009 0.000
1683 4 -0.910 4.569 14.381 -0.005 -0.002 -0.001 -0.000
1684 4 -0.986 6.341 12.282 0.001 -0.008 -0.009 -0.000
1685 4 0.790 4.407 12.237 -0.008 0.002 0.004 0.000
1686 4 1.106 6.280 14.312 -0.011 -0.011 0.004 -0.000
1687 4 3.018 4.606 14.083 0.000 0.000 -0.005 0.000
1688 4 2.802 6.394 12.361 -0.007 -0.002 0.001 0.000
1689 4 5.058 4.802 12.401 0.011 -0.001 0.010 0.000
1690 4 4.921 6.925 14.605 0.000 0.004 -0.000 -0.000
1691 4 6.614 4.771 14.838 -0.003 0.003 0.004 -0.000
1692 4 6.744 6.707 12.487 0.001 0.008 0.010 0.000
1693 4 8.379 4.624 12.659 0.011 0.002 -0.005 -0.000
1694 4 8.597 6.433 14.369 0.001 -0.007 -0.007 -0.000
1695 4 10.306 4.490 14.229 -0.007 0.001 0.003 -0.000
1696 4 10.359 6.811 12.550 0.001 0.000 -0.001 -0.000
1697 4 11.990 4.792 12.358 0.001 0.005 -0.007 -0.000
1698 4 12.327 6.691 14.205 0.002 0.007 -0.008 -0.000
1699 4 14.445 4.551 14.269 -0.003 0.005 0.008 0.000
1700 4 14.150 6.281 12.691 0.002 0.007 0.002 0.000
1723 4 -0.928 7.978 14.182 0.001 0.004 -0.003 -0.000
1724 4 -1.054 10.281 12.560 0.005 0.006 0.006 0.000
1725 4 0.762 8.330 12.655 -0.005 0.005 0.007 -0.000
1726 4 0.987 10.325 14.009 0.003 0.001 -0.006 0.000
1727 4 2.827 8.444 14.058 -0.003 0.002 -0.006 -0.000
1728 4 2.581 10.342 12.100 -0.005 0.010 0.008 0.000
1729 4 4.611 8.405 12.288 -0.001 0.000 -0.001 0.000
1730 4 4.371 10.401 13.995 0.006 -0.001 -0.005 0.000
1731 4 6.181 9.208 14.313 0.000 -0.011 0.004 0.000
1732 4 6.366 10.360 11.640 -0.010 -0.013 -0.005 -0.000
1733 4 8.396 8.706 12.835 0.008 -0.004 -0.006 0.000
1734 4 8.436 10.831 14.582 0.005 0.005 -0.007 -0.000
1735 4 10.534 8.742 14.407 0.004 0.001 0.009 -0.000
1736 4 10.031 10.445 12.573 -0.018 -0.004 -0.011 -0.000
1737 4 12.165 8.795 12.541 0.004 0.003 -0.002 0.000
1738 4 12.475 10.743 14.525 0.001 0.008 -0.008 -0.000
1739 4 14.309 8.763 13.892 -0.001 -0.001 -0.002 -0.000
1740 4 14.281 10.800 12.294 0.007 -0.002 -0.003 -0.000
1763 4 -0.782 12.201 14.480 -0.008 0.009 -0.009 0.000
1764 4 -0.961 14.034 12.530 0.006 -0.002 -0.004 0.000
1765 4 0.648 12.120 12.327 -0.001 -0.004 -0.002 0.000
1766 4 1.006 14.712 14.251 0.007 0.002 0.000 -0.000
1767 4 2.720 12.475 14.059 -0.004 0.006 0.003 -0.000
1768 4 2.977 14.612 12.464 0.000 -0.002 0.004 -0.000
1769 4 4.797 12.382 12.364 -0.015 -0.002 -0.009 -0.000
1770 4 4.675 14.110 14.428 0.001 -0.006 -0.000 -0.000
1771 4 6.478 12.694 14.195 0.003 -0.010 0.003 -0.000
1772 4 7.203 14.413 12.205 0.005 -0.001 -0.005 -0.000
1773 4 8.570 12.248 12.394 0.001 -0.003 0.008 0.000
1774 4 8.685 14.175 14.639 0.001 0.006 -0.005 0.000
1775 4 10.470 12.221 14.883 0.010 -0.007 0.004 -0.000
1776 4 10.413 14.226 12.499 0.004 0.003 -0.003 -0.000
1777 4 12.030 12.284 12.559 -0.004 0.000 0.001 -0.000
1778 4 12.348 14.103 14.355 -0.002 -0.005 0.001 -0.000
1779 4 14.699 12.810 14.436 -0.001 0.001 -0.003 0.000
1780 4 13.980 13.981 12.344 0.005 0.005 0.010 -0.000
2004 4 -1.019 -1.046 16.379 -0.001 -0.001 0.007 0.000
2006 4 1.054 -1.130 17.889 0.001 0.001 -0.004 -0.000
2008 4 2.890 -0.719 15.948 -0.003 0.002 -0.009 -0.000
2010 4 4.433 -1.507 18.066 -0.008 -0.002 0.003 -0.000
2012 4 6.513 -1.212 16.336 0.001 0.004 -0.008 -0.000
2014 4 8.977 -1.294 18.527 -0.013 0.001 0.007 0.000
2016 4 10.399 -1.209 16.194 0.004 -0.002 0.004 -0.000
2018 4 12.756 -0.713 18.040 0.004 -0.003 0.002 0.000
2020 4 14.416 -1.137 16.383 -0.001 0.004 -0.009 -0.000
2043 4 -0.970 0.782 18.159 0.011 -0.009 0.004 0.000
2044 4 -0.896 2.803 15.977 -0.012 0.003 -0.001 0.000
2045 4 0.767 0.511 16.139 0.006 -0.008 -0.002 0.000
2046 4 0.991 2.202 18.194 -0.002 -0.012 -0.002 0.000
2047 4 2.831 0.826 18.064 0.005 -0.007 -0.002 -0.000
2048 4 2.959 2.804 16.624 -0.002 -0.009 -0.001 0.000
2049 4 4.906 0.829 16.059 0.010 -0.011 -0.001 -0.000
2050 4 4.736 2.723 18.139 0.003 -0.004 0.008 -0.000
2051 4 6.628 0.157 17.999 -0.013 0.004 0.006 0.000
2052 4 6.546 2.562 16.338 -0.002 0.013 0.004 -0.000
2053 4 8.592 0.383 16.558 -0.002 0.002 0.012 0.000
2054 4 8.676 2.652 18.000 -0.007 -0.003 0.006 -0.000
2055 4 10.604 1.049 18.190 -0.001 0.012 0.006 -0.000
2056 4 10.344 2.671 16.111 -0.001 0.001 -0.000 -0.000
2057 4 12.675 1.195 16.413 0.002 0.002 -0.008 -0.000
2058 4 12.163 2.912 18.163 0.007 -0.001 -0.005 -0.000
2059 4 14.512 1.300 18.034 -0.005 -0.002 -0.001 -0.000
2060 4 14.317 2.862 16.056 -0.011 -0.002 0.003 0.000
2083 4 -0.760 4.471 17.969 0.007 -0.004 -0.003 0.000
2084 4 -0.901 6.315 16.218 -0.005 -0.006 0.004 -0.000
2085 4 1.186 4.607 15.912 0.003 -0.003 -0.003 -0.000
2086 4 1.256 6.566 18.220 -0.001 -0.010 0.001 -0.000
2087 4 2.707 4.449 18.132 -0.000 -0.009 0.012 -0.000
2088 4 2.998 6.599 15.913 0.013 -0.015 0.006 -0.000
2089 4 4.957 4.310 16.348 -0.002 -0.006 0.004 -0.000
2090 4 4.362 5.870 17.941 -0.002 0.006 -0.002 -0.000
2091 4 7.098 4.416 18.154 0.000 -0.005 0.001 0.000
2092 4 6.399 6.477 16.577 -0.003 0.004 0.003 -0.000
2093 4 8.433 4.552 16.257 0.002 0.006 0.002 -0.000
2094 4 8.177 6.791 18.119 0.003 -0.013 0.014 -0.000
2095 4 10.397 4.972 18.065 -0.002 0.001 0.003 0.000
2096 4 10.451 6.625 16.262 -0.012 -0.003 0.004 0.000
2097 4 12.337 4.560 16.096 -0.006 0.001 0.001 0.000
2098 4 12.339 6.858 17.910 -0.008 0.002 0.003 0.000
2099 4 14.400 5.134 17.782 -0.004 0.007 -0.009 -0.000
2100 4 14.231 6.718 15.643 0.014 -0.001 -0.011 0.000
2123 4 -0.565 8.228 17.677 0.005 0.010 0.011 -0.000
2124 4 -0.542 10.564 16.551 -0.005 -0.003 0.004 -0.000
2125 4 1.154 8.317 15.703 -0.005 -0.005 0.009 -0.000
2126 4 1.060 10.523 18.337 0.005 0.006 -0.000 -0.000
2127 4 2.993 8.282 17.985 0.010 -0.000 0.001 0.000
2128 4 2.536 10.732 15.932 0.007 0.005 -0.002 0.000
2129 4 4.461 8.851 16.160 -0.016 -0.001 0.003 0.000
2130 4 4.741 10.493 18.075 -0.005 0.002 0.014 0.000
2131 4 6.372 8.239 18.210 -0.002 -0.002 -0.008 0.000
2132 4 6.557 10.645 16.180 0.001 -0.001 -0.005 -0.000
2133 4 8.653 8.678 16.134 -0.008 -0.000 -0.003 -0.000
2134 4 8.295 10.071 18.148 0.000 -0.003 0.007 -0.000
2135 4 10.299 8.561 18.264 -0.008 0.003 -0.006 -0.000
2136 4 10.355 10.396 16.626 -0.005 -0.007 0.000 -0.000
2137 4 12.769 8.486 15.997 -0.001 0.006 -0.002 0.000
2138 4 12.530 10.349 18.262 -0.008 -0.008 0.006 0.000
2139 4 14.586 8.453 18.060 -0.005 -0.002 -0.008 0.000
2140 4 14.241 10.451 16.062 0.005 -0.007 -0.006 0.000
2163 4 -0.536 12.450 18.112 0.000 -0.005 -0.011 -0.000
2164 4 -0.975 13.833 16.138 0.001 0.008 -0.002 -0.000
2165 4 1.243 12.398 16.249 0.001 0.006 -0.013 -0.000
2166 4 1.181 14.544 18.663 -0.007 -0.012 -0.005 -0.000
2167 4 2.529 12.357 18.368 0.005 -0.005 0.000 0.000
2168 4 2.884 14.324 16.021 -0.003 0.010 -0.007 -0.000
2169 4 4.381 12.150 16.390 0.001 0.005 -0.001 -0.000
2170 4 4.758 14.178 18.164 -0.003 0.004 -0.010 -0.000
2171 4 6.484 12.171 17.793 -0.002 -0.001 -0.016 0.000
2172 4 6.509 14.273 16.226 0.002 -0.003 -0.004 -0.000
2173 4 8.632 12.576 16.675 -0.004 0.006 -0.004 -0.000
2174 4 8.664 14.548 18.050 -0.006 0.006 -0.011 0.000
2175 4 10.654 12.273 18.710 -0.001 -0.007 0.016 0.000
2176 4 10.738 14.873 16.303 -0.007 -0.007 0.002 0.000
2177 4 12.557 12.335 16.551 0.004 0.001 -0.016 0.000
2178 4 12.466 14.043 18.375 0.001 0.009 -0.000 0.000
2179 4 14.429 12.469 18.288 0.004 0.001 -0.000 0.000
2180 4 13.824 14.267 16.188 0.005 0.012 0.009 0.000
2404 4 -0.856 -1.182 19.735 -0.009 0.009 -0.008 0.000
2408 4 2.860 -1.088 20.014 0.002 0.002 0.004 -0.000
2412 4 6.723 -1.234 19.724 -0.011 -0.016 -0.011 -0.000
2416 4 10.901 -1.005 19.799 0.007 -0.001 -0.010 -0.000
2420 4 14.200 -0.896 20.476 -0.000 -0.004 -0.003 -0.000
2444 4 -0.770 2.971 20.025 -0.007 -0.003 -0.013 0.000
2445 4 0.928 0.870 20.625 -0.000 -0.008 -0.009 0.000
2448 4 3.073 2.778 20.300 -0.010 0.017 0.010 0.000
2449 4 4.678 0.759 19.696 0.007 -0.000 -0.007 0.000
2452 4 6.380 2.620 20.059 0.003 -0.005 -0.011 0.000
2453 4 8.263 0.821 20.166 -0.000 -0.003 0.002 -0.000
2456 4 10.595 2.859 19.889 -0.004 -0.010 -0.005 0.000
2457 4 12.691 0.975 19.886 -0.007 0.003 -0.010 -0.000
2460 4 14.025 3.201 19.765 -0.001 0.002 -0.005 -0.000
2484 4 -0.660 6.351 19.975 0.001 -0.000 -0.004 -0.000
2485 4 1.074 4.654 20.246 -0.000 -0.001 0.005 0.000
2488 4 2.177 7.073 20.326 -0.003 -0.000 -0.001 0.000
2489 4 4.698 4.703 20.137 -0.003 0.005 -0.003 -0.000
2492 4 6.569 6.380 20.138 -0.001 -0.004 0.007 -0.000
2493 4 8.847 4.737 19.945 0.001 0.001 -0.007 -0.000
2496 4 10.370 6.783 19.921 -0.002 -0.001 0.007 0.000
2497 4 12.377 4.892 19.721 -0.008 -0.009 0.009 -0.000
2500 4 14.321 6.586 19.768 0.006 0.002 0.005 -0.000
2524 4 -1.063 10.460 20.379 -0.003 -0.004 0.008 -0.000
2525 4 0.520 8.639 19.831 0.010 0.002 0.002 0.000
2528 4 2.947 9.926 20.204 -0.009 -0.009 -0.005 0.000
2529 4 5.098 8.399 19.826 -0.002 -0.003 0.001 0.000
2532 4 6.594 10.253 19.720 -0.002 0.001 0.008 -0.000
2533 4 8.261 8.406 20.154 -0.001 -0.005 0.007 0.000
2536 4 10.224 10.239 20.073 -0.003 0.009 -0.001 -0.000
2537 4 12.312 8.724 20.159 -0.007 0.005 -0.008 0.000
2540 4 14.395 10.530 20.074 -0.005 0.001 0.015 -0.000
2564 4 -1.339 14.520 20.091 -0.001 0.005 -0.003 0.000
2565 4 1.011 12.670 20.337 -0.007 0.010 0.005 0.000
2568 4 3.268 13.689 20.318 -0.001 -0.019 -0.005 -0.000
2569 4 4.935 12.139 19.974 0.002 0.005 -0.004 0.000
2572 4 7.131 14.456 19.940 0.001 -0.002 0.003 -0.000
2573 4 8.187 12.047 19.652 0.006 -0.006 0.002 -0.000
2576 4 10.259 14.024 20.379 -0.008 0.003 -0.001 0.000
2577 4 12.389 11.879 20.169 0.009 -0.009 0.006 0.000
2580 4 14.525 14.053 20.081 -0.006 -0.004 0.002 -0.000
2451 4 6.723 0.424 22.201 0.004 0.005 0.007 -0.000
2450 4 5.089 2.566 22.139 0.005 0.005 0.008 -0.000
2486 4 1.126 6.259 22.138 0.008 0.011 0.005 -0.000
2491 4 6.723 4.616 21.828 -0.014 -0.008 -0.007 0.000
2535 4 10.393 8.618 22.117 0.004 0.007 0.006 -0.000
2526 4 0.963 10.300 21.990 0.006 -0.010 -0.003 0.000
2539 4 14.163 8.607 21.997 0.009 -0.001 0.001 0.000
2459 4 14.358 1.623 21.451 0.008 -0.002 0.004 0.000
2579 4 14.517 12.300 21.646 -0.009 -0.001 0.006 -0.000
2498 4 12.456 6.593 21.694 -0.010 0.002 -0.012 -0.000
2578 4 12.290 13.970 22.085 -0.007 0.005 -0.006 -0.000
2571 4 6.641 12.337 21.782 -0.014 0.001 -0.006 -0.000
2410 4 4.902 -1.182 21.433 0.005 0.006 -0.004 -0.000
2414 4 9.099 -0.886 21.466 -0.005 -0.002 -0.008 0.000
2447 4 3.156 1.123 22.213 0.006 0.000 -0.010 -0.000
2523 4 -1.022 8.426 22.085 0.003 0.008 0.008 -0.000
2527 4 3.115 8.691 22.293 -0.002 -0.002 -0.004 -0.000
2487 4 2.818 4.862 22.277 0.006 0.007 -0.005 -0.000
2406 4 0.895 -1.010 21.783 0.010 -0.005 -0.002 -0.000
2563 4 -1.229 12.551 21.837 -0.005 -0.011 0.007 0.000
2454 4 8.635 2.761 21.668 -0.001 -0.006 0.004 -0.000
2499 4 14.456 4.907 21.676 -0.009 0.009 -0.004 -0.000
2534 4 8.120 10.214 21.706 0.012 0.005 -0.006 -0.000
2443 4 -1.329 1.007 21.859 -0.005 -0.002 0.013 -0.000
2530 4 5.073 10.279 21.799 0.007 0.002 0.006 0.000
2574 4 8.380 14.379 21.715 -0.000 -0.002 0.000 0.000
2566 4 0.482 14.746 21.669 0.006 -0.002 -0.007 0.000
2494 4 8.622 6.419 22.092 -0.005 -0.003 -0.005 0.000
2495 4 10.488 4.805 22.028 0.005 0.002 0.005 0.000
2567 4 3.206 11.694 21.864 0.000 -0.002 0.004 0.000
2531 4 6.680 8.235 21.962 0.001 -0.009 0.004 -0.000
1413 4 8.816 16.018 8.454 0.001 0.003 0.004 -0.000
2490 4 4.431 6.561 21.873 -0.001 -0.003 -0.004 -0.000
2570 4 4.986 14.390 21.560 -0.003 0.003 0.002 -0.000
207 4 3.179 15.807 -1.187 -0.004 -0.003 0.004 -0.000
1013 4 8.608 15.773 4.623 -0.006 0.003 0.003 -0.000
611 4 6.806 16.020 2.697 -0.001 0.007 -0.009 0.000
2458 4 11.890 2.870 21.875 0.010 0.004 -0.001 -0.000
2538 4 12.347 10.463 22.270 -0.002 -0.012 0.000 -0.000
2011 4 6.592 -3.158 18.461 -0.004 -0.009 0.004 0.000
164 4 -1.023 13.966 -2.749 0.001 -0.004 0.004 -0.000
1681 4 -2.835 4.173 12.609 -0.009 -0.006 -0.010 -0.000
1682 4 -3.007 6.291 14.285 -0.014 -0.004 0.010 -0.000
122 4 -2.569 10.314 -0.726 0.001 -0.006 -0.012 0.000
1803 4 -1.037 15.840 14.301 0.015 0.003 0.004 0.000
129 4 4.671 8.612 -2.825 -0.003 0.006 0.001 0.000
1607 4 2.909 -3.112 13.810 0.016 -0.004 0.001 0.000
165 4 0.713 12.026 -2.860 -0.002 -0.007 0.002 -0.000
1742 4 16.208 10.484 14.235 0.005 0.003 0.001 -0.000
2521 4 -2.207 8.361 20.013 0.007 -0.004 0.011 -0.000
402 4 -2.914 -0.973 2.538 -0.002 -0.001 0.003 0.000
2219 4 14.264 16.084 18.058 -0.003 0.004 -0.001 -0.000
2418 4 12.432 -0.474 22.110 0.001 -0.000 0.003 0.000
128 4 2.892 10.327 -2.852 0.001 -0.017 -0.004 0.000
1382 4 15.997 13.742 10.412 -0.003 -0.000 -0.010 0.000
2082 4 -2.644 6.549 18.310 -0.002 -0.000 0.000 0.000
2081 4 -2.738 4.207 16.124 0.001 0.001 0.004 -0.000
205 4 1.037 15.597 -2.993 0.007 -0.004 -0.014 -0.000
1019 4 14.449 15.853 6.639 0.007 0.005 -0.002 0.000
819 4 14.378 -2.917 6.258 -0.002 -0.005 -0.004 0.000
1605 4 0.887 -3.035 12.524 0.003 -0.009 0.006 -0.000
124 4 -0.999 10.133 -3.036 -0.002 0.007 -0.005 0.000
861 4 16.122 0.537 5.117 0.009 0.000 -0.004 -0.000
1242 4 -2.783 2.354 10.656 -0.006 0.003 -0.002 0.000
2002 4 -2.883 -0.946 18.355 -0.000 0.004 0.012 -0.000
2 4 -2.882 -1.085 -0.903 -0.003 -0.007 0.000 -0.000
1419 4 14.113 15.963 10.457 0.002 -0.000 -0.003 -0.000
57 4 12.391 0.425 -2.813 -0.006 0.001 -0.004 0.000
132 4 6.601 10.170 -2.665 -0.009 0.004 -0.007 0.000
1741 4 16.113 8.776 12.286 0.002 0.001 0.008 -0.000
561 4 -2.639 12.821 1.165 0.006 0.002 -0.011 0.000
881 4 -2.740 4.587 4.567 -0.001 -0.003 0.006 -0.000
882 4 -2.545 6.762 6.456 0.008 0.009 -0.003 -0.000
1405 4 1.060 15.955 8.759 -0.001 0.004 -0.001 -0.000
1415 4 10.800 15.998 10.449 0.002 0.010 0.016 -0.000
2455 4 10.474 0.987 21.567 0.006 -0.001 0.012 -0.000
462 4 16.188 2.662 2.809 0.011 -0.006 -0.008 -0.000
2122 4 -2.793 10.431 18.253 -0.010 -0.006 0.004 -0.000
1761 4 -2.724 12.415 12.756 -0.001 0.001 0.009 0.000
1281 4 -2.665 4.410 8.575 -0.006 0.003 -0.011 -0.000
2205 4 0.872 15.984 16.335 0.003 0.003 0.003 0.000
619 4 14.650 15.933 2.698 -0.009 0.003 -0.010 -0.000
140 4 14.541 10.693 -2.744 0.006 0.003 -0.006 -0.000
176 4 10.496 14.320 -3.120 0.013 -0.006 -0.015 0.000
1342 4 15.670 10.624 10.602 0.009 0.002 -0.009 0.000