ITEM: TIMESTEP
15000
ITEM: NUMBER OF ATOMS
32000
ITEM: BOX BOUNDS pp pp pp
-3.030582 73.510582
-2.929597 73.409597
-3.143686 73.623686
ITEM: ATOMS id type x y z vx vy vz q
6 4 0.941 -0.856 -1.488 0.001 -0.000 -0.002 -0.000
10 4 4.701 -0.912 -1.454 0.012 0.010 0.009 -0.000
14 4 8.275 -1.209 -0.806 0.005 0.013 -0.003 0.000
18 4 11.937 -0.657 -0.974 0.007 -0.004 -0.002 0.000
43 4 -0.978 1.126 -1.458 -0.004 -0.000 -0.005 0.000
46 4 0.768 3.389 -1.231 0.002 0.004 0.016 -0.000
47 4 2.816 1.230 -0.887 0.005 0.002 0.004 -0.000
50 4 4.971 3.116 -1.122 0.008 0.005 -0.009 -0.000
51 4 6.463 0.868 -1.020 0.007 0.005 0.007 0.000
54 4 8.010 2.926 -1.616 -0.014 0.005 -0.004 0.000
55 4 10.482 1.403 -1.413 -0.001 -0.002 -0.009 -0.000
58 4 12.322 2.931 -1.122 0.004 -0.009 0.002 0.000
59 4 13.904 0.913 -0.957 0.007 0.007 0.001 0.000
83 4 -0.837 4.993 -0.911 0.006 -0.008 -0.001 0.000
86 4 0.713 6.726 -1.247 -0.003 0.005 0.005 -0.000
87 4 2.898 5.188 -1.383 0.004 0.000 -0.015 -0.000
90 4 4.921 6.767 -1.488 0.009 -0.003 -0.006 -0.000
91 4 6.796 4.700 -1.229 -0.005 -0.006 -0.011 -0.000
94 4 8.249 6.985 -1.225 -0.011 0.005 -0.002 -0.000
95 4 10.842 4.938 -1.280 0.002 0.003 0.007 0.000
98 4 12.512 7.000 -0.936 -0.000 0.002 0.001 0.000
99 4 14.431 4.885 -0.968 -0.005 0.003 0.004 0.000
123 4 -1.115 8.723 -0.843 -0.002 -0.002 -0.001 -0.000
126 4 0.841 10.551 -0.717 0.002 -0.003 0.003 0.000
127 4 2.993 8.642 -1.077 0.002 0.003 -0.011 0.000
130 4 4.234 10.548 -0.962 0.000 -0.010 0.000 0.000
131 4 6.698 8.847 -1.177 -0.002 0.003 -0.001 -0.000
134 4 8.446 10.553 -1.535 -0.003 0.001 -0.002 0.000
135 4 10.275 8.837 -1.281 -0.004 0.007 -0.000 0.000
138 4 12.273 10.622 -1.482 0.008 0.009 -0.003 0.000
139 4 13.924 8.894 -0.844 0.003 -0.000 -0.004 -0.000
163 4 -1.103 11.935 -1.147 -0.006 0.001 -0.001 -0.000
166 4 0.663 14.425 -1.286 -0.002 0.001 0.006 0.000
167 4 2.622 12.491 -1.098 -0.005 0.000 -0.011 -0.000
170 4 4.123 14.100 -1.329 -0.004 0.002 0.001 0.000
171 4 6.418 12.282 -1.518 -0.000 -0.000 -0.007 -0.000
174 4 8.207 14.130 -1.299 0.005 -0.001 -0.010 0.000
175 4 10.231 12.331 -1.424 0.001 0.002 -0.002 -0.000
178 4 12.310 14.463 -1.320 0.006 -0.003 -0.006 -0.000
179 4 14.004 12.260 -1.052 -0.010 0.005 -0.007 0.000
404 4 -0.843 -0.446 0.331 0.003 -0.002 0.003 0.000
406 4 0.623 -0.756 2.391 -0.005 0.002 0.007 -0.000
408 4 2.833 -1.067 0.809 -0.003 0.002 0.005 0.000
410 4 4.761 -0.408 2.664 -0.012 0.004 -0.009 0.000
412 4 6.384 -0.754 0.904 -0.006 0.001 -0.001 0.000
414 4 8.271 -1.170 2.680 -0.004 -0.000 -0.001 0.000
416 4 10.314 -0.555 0.808 -0.009 0.001 -0.002 0.000
418 4 11.844 -0.742 3.118 -0.007 0.007 -0.003 -0.000
420 4 13.946 -0.798 0.867 0.003 -0.005 -0.005 0.000
443 4 -1.310 0.978 2.452 -0.001 -0.000 -0.000 0.000
444 4 -1.021 2.833 0.475 -0.003 0.008 -0.006 -0.000
445 4 0.715 1.322 0.452 -0.012 0.001 -0.001 0.000
446 4 0.607 2.819 2.561 0.002 0.002 -0.001 0.000
447 4 2.459 0.763 2.589 0.000 0.005 0.005 -0.000
448 4 2.674 3.013 1.127 0.002 -0.008 0.007 -0.000
449 4 4.778 1.031 0.649 0.004 -0.003 -0.007 -0.000
450 4 4.952 2.715 2.526 -0.004 -0.000 -0.005 0.000
451 4 6.890 1.029 2.955 -0.002 0.006 0.000 -0.000
452 4 6.738 2.954 0.680 0.001 0.012 0.003 -0.000
453 4 8.533 1.135 0.643 0.001 0.007 0.002 -0.000
454 4 8.259 3.130 2.561 -0.008 0.002 0.002 0.000
455 4 9.690 1.045 2.883 -0.001 0.005 -0.004 -0.000
456 4 10.549 2.719 0.885 0.007 0.000 -0.003 -0.000
457 4 12.446 1.312 0.995 -0.009 0.005 0.006 -0.000
458 4 12.318 3.226 3.023 0.005 -0.009 0.013 0.000
459 4 14.110 0.925 2.945 0.005 0.001 -0.008 0.000
460 4 14.219 3.228 1.147 0.004 0.001 0.005 -0.000
483 4 -0.954 4.949 2.401 0.006 -0.009 0.005 -0.000
484 4 -0.673 6.756 0.906 -0.000 0.011 0.004 0.000
485 4 1.376 4.940 1.052 -0.008 -0.002 -0.003 -0.000
486 4 0.621 6.621 3.201 -0.000 -0.001 -0.003 0.000
487 4 3.056 5.267 3.048 -0.002 -0.006 -0.006 -0.000
488 4 2.956 6.914 0.450 -0.007 -0.003 0.001 -0.000
489 4 4.702 4.849 0.867 0.010 0.008 -0.006 0.000
490 4 4.513 6.882 2.532 0.003 -0.005 -0.006 0.000
491 4 6.242 5.185 2.989 -0.006 -0.003 0.012 -0.000
492 4 6.812 6.829 0.551 -0.003 0.003 -0.007 0.000
493 4 8.640 4.650 0.463 0.001 0.002 -0.007 0.000
494 4 8.657 6.517 2.530 -0.005 -0.004 -0.003 0.000
495 4 10.264 4.867 2.670 0.005 -0.005 0.005 -0.000
496 4 10.114 6.887 0.541 0.002 -0.002 0.008 -0.000
497 4 12.264 5.016 0.775 -0.002 0.000 -0.003 -0.000
498 4 12.114 6.837 2.771 -0.000 0.008 -0.001 0.000
499 4 14.138 4.824 2.972 -0.006 0.003 -0.002 -0.000
500 4 14.335 6.871 1.128 -0.000 0.004 -0.004 -0.000
523 4 -1.037 8.487 2.690 -0.005 -0.004 0.003 -0.000
524 4 -1.305 10.708 0.913 0.000 0.000 0.002 0.000
525 4 0.674 9.043 1.204 0.010 0.004 0.004 0.000
526 4 0.783 10.794 3.061 -0.005 0.005 -0.002 0.000
527 4 2.668 8.500 2.742 -0.001 0.002 0.001 -0.000
528 4 2.721 10.611 0.882 0.003 0.007 -0.008 0.000
529 4 4.514 9.020 1.031 0.007 -0.002 0.001 0.000
530 4 4.742 10.536 2.518 0.010 0.008 0.006 0.000
531 4 6.602 8.602 2.177 0.000 0.004 0.001 -0.000
532 4 6.563 10.943 0.463 0.021 0.005 0.010 -0.000
533 4 8.497 8.952 0.474 0.002 0.004 0.001 0.000
534 4 8.231 10.378 2.618 0.001 0.011 -0.001 0.000
535 4 10.274 8.733 2.434 -0.005 -0.001 -0.011 -0.000
536 4 10.574 10.580 0.480 -0.004 0.001 0.001 -0.000
537 4 12.370 8.028 0.856 0.000 0.006 -0.003 0.000
538 4 12.258 10.412 2.887 -0.001 -0.008 -0.008 0.000
539 4 13.873 8.691 3.062 0.011 -0.006 -0.008 -0.000
540 4 13.978 10.184 1.051 -0.002 0.008 -0.004 -0.000
563 4 -1.211 12.586 2.905 -0.005 0.000 -0.004 0.000
564 4 -1.295 13.491 0.610 -0.001 0.001 -0.006 0.000
565 4 0.866 12.252 0.822 0.011 0.008 0.003 -0.000
566 4 0.573 14.432 2.464 -0.002 -0.001 0.008 0.000
567 4 2.802 12.317 2.627 -0.003 0.005 0.001 -0.000
568 4 2.600 14.289 0.745 -0.001 -0.001 0.002 0.000
569 4 4.555 12.511 0.669 -0.005 0.006 -0.009 0.000
570 4 4.942 14.284 2.701 -0.003 -0.000 -0.013 -0.000
571 4 6.884 12.534 2.876 0.003 -0.001 0.001 -0.000
572 4 6.675 14.283 0.860 0.001 0.016 -0.007 0.000
573 4 8.317 12.230 0.769 0.007 0.000 0.000 0.000
574 4 8.396 14.301 2.288 0.001 0.002 0.008 -0.000
575 4 10.453 12.517 2.566 -0.004 0.007 0.005 -0.000
576 4 10.179 14.009 0.458 0.002 0.003 -0.005 0.000
577 4 12.051 12.293 0.433 -0.007 0.001 -0.008 -0.000
578 4 12.351 14.467 2.601 -0.003 0.008 -0.000 0.000
579 4 14.183 12.715 2.437 -0.007 -0.001 0.003 0.000
580 4 13.932 14.543 0.730 0.009 0.006 0.006 -0.000
804 4 -1.199 -0.774 4.406 0.002 0.004 0.009 0.000
806 4 0.802 -0.993 6.329 -0.004 0.011 -0.004 -0.000
808 4 2.469 -1.085 4.320 -0.008 0.008 -0.007 -0.000
810 4 4.251 -0.880 6.042 -0.004 0.008 0.004 -0.000
812 4 6.666 -1.048 4.614 0.004 0.012 -0.004 0.000
814 4 8.126 -0.726 6.933 0.008 -0.010 0.002 -0.000
816 4 9.859 -0.890 4.855 0.004 -0.008 0.009 0.000
818 4 11.739 -0.683 6.772 -0.002 -0.001 -0.008 0.000
820 4 13.976 -1.033 4.602 -0.002 0.001 0.005 -0.000
843 4 -1.378 1.200 6.374 -0.011 0.004 0.003 -0.000
844 4 -1.384 3.083 4.128 0.004 -0.012 -0.003 0.000
845 4 0.477 1.386 4.559 -0.004 0.006 -0.011 0.000
846 4 0.843 3.092 6.434 0.008 0.008 0.001 0.000
847 4 2.970 1.357 6.616 0.005 -0.004 0.008 -0.000
848 4 2.930 3.329 4.474 -0.006 0.005 0.001 0.000
849 4 4.608 1.264 4.497 -0.007 0.016 -0.004 -0.000
850 4 4.866 3.078 6.536 0.011 0.003 -0.002 0.000
851 4 6.392 1.068 6.517 -0.006 -0.001 0.006 -0.000
852 4 6.698 2.881 4.924 -0.004 -0.003 -0.001 0.000
853 4 8.449 1.033 4.905 -0.006 0.016 -0.001 0.000
854 4 8.445 3.147 6.834 -0.011 -0.010 -0.007 -0.000
855 4 10.215 0.971 6.699 0.005 -0.004 -0.011 -0.000
856 4 10.183 3.314 4.836 -0.000 0.004 -0.006 -0.000
857 4 11.541 1.296 4.519 0.015 -0.004 -0.004 0.000
858 4 11.935 2.932 6.609 -0.012 0.002 -0.013 -0.000
859 4 13.569 0.902 6.202 -0.006 -0.005 -0.008 0.000
860 4 13.909 3.103 4.864 -0.004 -0.001 0.005 -0.000
883 4 -1.194 5.116 6.457 -0.005 0.001 0.005 0.000
884 4 -1.141 7.022 4.779 -0.005 0.001 0.006 0.000
885 4 0.889 4.612 4.377 0.005 0.001 -0.009 -0.000
886 4 0.753 7.285 6.229 -0.001 0.001 0.002 0.000
887 4 2.639 4.703 6.411 0.008 -0.009 0.001 0.000
888 4 2.685 6.799 4.632 0.004 -0.010 -0.007 0.000
889 4 4.777 4.762 4.745 -0.002 0.001 -0.002 0.000
890 4 4.573 6.975 6.416 -0.006 -0.006 0.005 -0.000
891 4 6.658 4.752 6.387 0.004 0.005 -0.003 0.000
892 4 6.250 6.712 4.566 -0.000 0.002 -0.000 0.000
893 4 8.223 5.092 4.449 0.000 0.000 -0.006 0.000
894 4 8.686 6.697 6.503 0.008 -0.002 -0.002 -0.000
895 4 10.406 4.764 6.994 0.002 0.007 -0.002 0.000
896 4 10.113 6.738 4.593 0.003 0.009 -0.001 0.000
897 4 12.206 5.015 4.926 0.003 0.005 0.003 0.000
898 4 12.177 6.725 6.629 -0.002 0.002 -0.004 -0.000
899 4 14.300 4.942 6.650 -0.004 0.003 0.017 0.000
900 4 14.490 6.661 4.992 -0.000 -0.003 -0.008 0.000
923 4 -0.939 9.165 6.506 -0.002 -0.007 -0.005 -0.000
924 4 -1.262 10.619 4.466 -0.000 0.003 0.002 -0.000
925 4 0.847 9.007 4.297 -0.003 0.003 -0.009 0.000
926 4 0.953 11.234 6.627 -0.010 -0.003 0.006 0.000
927 4 2.985 8.821 6.923 0.003 0.004 -0.005 -0.000
928 4 2.845 10.713 5.021 0.002 -0.004 0.002 -0.000
929 4 4.643 8.711 4.250 -0.005 -0.003 0.005 0.000
930 4 4.958 10.529 6.761 -0.003 0.008 0.005 0.000
931 4 6.822 8.565 6.573 0.008 0.005 0.001 0.000
932 4 6.762 10.188 4.697 0.009 -0.004 -0.009 -0.000
933 4 8.433 8.418 4.360 0.006 0.005 0.004 0.000
934 4 8.457 10.397 6.900 -0.003 -0.004 -0.011 0.000
935 4 10.371 8.664 6.736 -0.003 0.011 0.004 0.000
936 4 10.375 10.151 4.668 -0.007 -0.006 0.001 -0.000
937 4 12.433 8.608 4.904 0.013 0.007 0.005 -0.000
938 4 12.134 10.726 6.480 -0.005 0.012 0.001 -0.000
939 4 14.334 9.064 6.625 0.002 -0.014 -0.013 0.000
940 4 14.441 11.184 4.578 0.001 0.008 -0.021 -0.000
963 4 -0.997 12.363 6.669 0.000 0.007 0.004 -0.000
964 4 -1.168 14.359 4.709 0.002 -0.004 -0.002 0.000
965 4 0.899 12.892 4.497 0.007 0.007 -0.001 -0.000
966 4 0.813 14.313 6.781 -0.011 0.002 0.003 0.000
967 4 3.243 12.658 6.756 -0.004 0.013 -0.002 -0.000
968 4 3.072 14.355 4.802 0.014 0.000 0.002 0.000
969 4 5.015 12.364 4.478 -0.007 -0.001 -0.000 0.000
970 4 5.270 14.200 6.397 0.005 0.003 -0.002 -0.000
971 4 6.881 12.356 6.311 -0.008 -0.002 -0.007 0.000
972 4 7.237 14.531 4.444 -0.008 0.008 0.009 0.000
973 4 8.485 12.094 4.341 -0.004 -0.004 -0.008 0.000
974 4 8.782 14.250 6.619 0.002 0.007 -0.002 -0.000
975 4 10.037 12.447 6.551 0.003 -0.008 0.001 -0.000
976 4 10.252 14.107 4.502 -0.001 0.006 -0.004 0.000
977 4 11.848 12.189 4.727 -0.000 0.003 -0.008 -0.000
978 4 12.178 13.978 6.778 0.001 0.008 -0.006 0.000
979 4 14.021 12.411 6.985 -0.006 0.010 -0.007 0.000
980 4 14.088 14.498 4.939 0.010 0.008 0.009 -0.000
1204 4 -1.420 -0.654 8.254 0.012 -0.004 -0.002 0.000
1206 4 0.798 -0.858 10.163 0.011 -0.012 -0.008 0.000
1208 4 2.973 -0.790 8.233 0.004 -0.001 -0.001 -0.000
1210 4 4.656 -0.748 10.014 -0.008 -0.000 0.001 -0.000
1212 4 6.098 -0.963 8.282 -0.002 0.000 0.007 -0.000
1214 4 8.494 -0.875 10.573 0.004 0.004 -0.002 0.000
1216 4 10.184 -0.734 8.819 0.000 -0.001 0.002 0.000
1218 4 12.421 -1.030 10.129 -0.001 -0.006 0.007 0.000
1220 4 13.894 -0.611 8.406 -0.011 -0.002 -0.009 -0.000
1243 4 -1.070 0.922 10.028 0.011 0.008 -0.002 -0.000
1244 4 -1.055 3.337 8.231 0.009 0.010 0.004 -0.000
1245 4 0.760 0.909 8.199 -0.011 -0.007 0.003 0.000
1246 4 0.642 3.107 10.038 -0.002 0.002 0.002 0.000
1247 4 2.525 0.977 10.274 0.012 0.003 -0.010 -0.000
1248 4 2.408 3.159 8.546 -0.015 -0.007 0.001 0.000
1249 4 4.578 1.261 8.517 -0.000 -0.007 0.005 0.000
1250 4 4.426 3.289 10.300 0.005 0.004 0.001 -0.000
1251 4 6.077 1.585 10.381 -0.002 0.003 -0.004 0.000
1252 4 6.562 3.378 8.718 -0.009 -0.001 -0.003 -0.000
1253 4 8.075 1.194 8.473 -0.008 0.001 0.002 0.000
1254 4 8.322 2.707 10.653 0.005 0.004 0.000 -0.000
1255 4 10.416 1.008 10.269 -0.006 0.003 -0.003 -0.000
1256 4 10.065 2.743 8.572 0.009 -0.003 -0.002 0.000
1257 4 12.312 1.033 8.587 -0.004 0.008 0.006 0.000
1258 4 12.414 2.772 10.725 0.001 -0.001 0.004 0.000
1259 4 14.420 1.008 10.370 -0.001 0.010 -0.003 0.000
1260 4 14.145 2.926 8.482 -0.001 -0.006 0.006 -0.000
1283 4 -1.224 5.273 10.031 0.006 -0.006 0.002 -0.000
1284 4 -1.049 6.926 8.143 0.004 0.003 -0.003 -0.000
1285 4 0.777 5.110 8.222 -0.005 -0.002 -0.004 0.000
1286 4 0.690 7.010 10.387 -0.009 -0.002 -0.001 0.000
1287 4 2.323 4.932 10.264 0.004 -0.004 -0.001 -0.000
1288 4 2.522 6.750 8.239 -0.004 0.003 -0.009 -0.000
1289 4 4.275 4.826 8.199 0.003 -0.002 -0.003 0.000
1290 4 4.929 6.703 10.225 -0.002 0.005 -0.007 -0.000
1291 4 6.537 4.737 10.711 0.009 0.001 -0.006 0.000
1292 4 6.318 6.517 8.301 -0.017 0.002 -0.010 -0.000
1293 4 8.524 5.047 8.541 -0.004 -0.005 0.004 0.000
1294 4 8.411 6.610 10.474 0.005 -0.010 -0.000 0.000
1295 4 10.423 4.583 10.263 0.007 0.003 0.002 -0.000
1296 4 10.603 6.569 8.670 -0.005 -0.011 0.002 0.000
1297 4 12.197 4.939 8.397 -0.013 0.005 0.007 0.000
1298 4 12.408 6.943 10.209 -0.004 -0.015 -0.002 -0.000
1299 4 14.076 4.930 10.542 0.000 0.000 0.004 0.000
1300 4 14.342 6.739 8.191 -0.006 -0.007 0.014 0.000
1323 4 -1.325 8.941 9.901 0.014 0.006 0.005 0.000
1324 4 -0.851 10.710 8.284 -0.003 -0.003 -0.001 -0.000
1325 4 0.817 8.648 8.480 0.004 -0.002 -0.002 0.000
1326 4 1.073 10.687 10.151 -0.007 0.008 -0.003 0.000
1327 4 3.209 8.607 9.868 -0.002 -0.007 -0.003 0.000
1328 4 3.045 10.645 8.153 -0.005 -0.005 0.005 -0.000
1329 4 4.958 8.466 8.330 0.006 0.000 0.004 0.000
1330 4 4.839 10.664 10.259 0.004 -0.007 -0.004 0.000
1331 4 6.592 8.704 10.469 0.003 -0.013 0.001 0.000
1332 4 6.784 10.271 8.648 0.008 -0.001 -0.009 -0.000
1333 4 8.407 8.330 8.584 -0.004 0.009 -0.002 -0.000
1334 4 8.230 10.790 10.653 -0.001 0.003 0.001 0.000
1335 4 10.371 8.960 10.505 0.004 -0.001 0.003 -0.000
1336 4 10.546 10.428 8.441 0.003 -0.002 -0.003 0.000
1337 4 12.610 8.639 8.642 -0.003 -0.000 -0.003 -0.000
1338 4 12.218 10.614 10.532 0.005 -0.003 -0.009 -0.000
1339 4 14.377 8.907 10.589 0.002 0.002 -0.008 0.000
1340 4 14.173 10.668 8.808 -0.009 -0.004 -0.005 -0.000
1363 4 -1.148 12.729 10.295 -0.003 0.002 -0.001 0.000
1364 4 -1.124 14.325 8.342 0.001 -0.004 0.007 -0.000
1365 4 0.896 12.635 8.489 -0.003 0.005 0.001 -0.000
1366 4 0.933 14.363 9.961 -0.003 -0.002 -0.002 0.000
1367 4 3.182 12.612 10.010 0.002 0.001 -0.004 0.000
1368 4 3.476 14.572 8.428 -0.003 -0.002 0.010 0.000
1369 4 5.344 12.414 8.546 0.000 0.004 -0.003 -0.000
1370 4 5.149 14.669 10.076 -0.005 -0.001 0.005 0.000
1371 4 6.265 12.583 10.698 -0.002 0.004 -0.004 -0.000
1372 4 6.681 14.438 8.302 -0.001 -0.003 0.005 -0.000
1373 4 8.430 12.331 8.530 0.004 0.007 0.004 0.000
1374 4 8.384 14.391 10.494 -0.014 0.003 0.000 0.000
1375 4 10.332 12.400 10.503 0.003 0.002 -0.005 -0.000
1376 4 10.303 14.217 8.678 -0.004 -0.012 -0.003 0.000
1377 4 12.296 12.253 8.544 0.001 -0.007 0.001 -0.000
1378 4 12.746 14.554 10.775 0.012 -0.001 -0.002 0.000
1379 4 14.462 12.335 10.594 0.002 -0.007 -0.002 0.000
1380 4 14.477 14.284 9.041 0.005 0.003 -0.000 -0.000
1604 4 -1.089 -0.980 11.929 0.005 0.001 0.008 -0.000
1606 4 0.498 -1.225 13.856 -0.005 0.011 0.005 0.000
1608 4 2.231 -0.689 12.520 0.004 -0.001 0.003 0.000
1610 4 4.508 -0.746 14.276 -0.006 -0.004 -0.001 0.000
1612 4 6.529 -0.841 12.244 0.008 -0.003 0.002 0.000
1614 4 8.476 -0.600 14.215 0.004 -0.003 -0.004 0.000
1616 4 10.562 -0.426 12.897 0.002 0.009 0.003 -0.000
1618 4 12.840 -0.763 14.210 -0.004 0.007 -0.011 -0.000
1620 4 14.156 -1.353 12.028 0.008 0.014 -0.002 -0.000
1643 4 -1.450 1.046 13.791 -0.002 -0.010 0.007 -0.000
1644 4 -1.156 2.985 11.990 -0.003 -0.005 -0.002 -0.000
1645 4 0.734 0.950 12.483 -0.007 -0.004 -0.007 0.000
1646 4 0.542 3.304 14.201 0.003 -0.008 0.001 -0.000
1647 4 2.593 1.381 14.006 0.004 0.002 0.003 -0.000
1648 4 2.502 3.000 12.184 0.002 0.007 0.003 0.000
1649 4 4.358 0.899 11.963 0.011 -0.015 -0.003 0.000
1650 4 4.214 2.878 13.793 -0.010 -0.003 0.008 0.000
1651 4 6.208 1.021 14.172 -0.006 0.016 0.001 -0.000
1652 4 6.362 2.849 12.632 0.001 -0.005 0.001 -0.000
1653 4 8.363 0.756 12.328 0.003 0.002 0.007 -0.000
1654 4 8.471 2.469 14.304 -0.002 0.002 0.005 0.000
1655 4 10.783 1.062 14.602 -0.008 -0.005 -0.001 -0.000
1656 4 10.194 2.550 12.506 -0.000 -0.007 -0.009 -0.000
1657 4 12.565 0.986 12.059 0.012 0.001 0.000 0.000
1658 4 12.694 2.849 13.909 -0.010 -0.009 -0.003 0.000
1659 4 14.278 0.920 13.945 0.009 -0.002 0.004 -0.000
1660 4 14.446 2.976 11.835 -0.009 0.008 0.005 -0.000
1683 4 -0.908 5.105 13.994 0.001 -0.007 -0.013 -0.000
1684 4 -1.313 6.802 12.220 -0.015 0.009 -0.004 -0.000
1685 4 0.615 4.864 12.106 -0.005 0.009 0.000 -0.000
1686 4 0.964 6.531 14.258 -0.009 -0.003 0.008 0.000
1687 4 2.916 4.701 14.275 0.000 0.000 0.005 -0.000
1688 4 2.928 7.035 12.004 -0.008 0.004 0.009 0.000
1689 4 4.609 5.112 12.142 -0.004 0.001 0.002 -0.000
1690 4 4.300 6.703 14.348 -0.009 -0.003 -0.007 0.000
1691 4 6.260 4.589 14.253 0.003 -0.008 0.000 -0.000
1692 4 6.571 6.588 12.529 -0.006 0.004 -0.003 0.000
1693 4 8.575 4.512 12.704 -0.007 0.006 0.002 0.000
1694 4 8.406 6.619 14.297 -0.012 -0.011 -0.010 -0.000
1695 4 10.425 4.992 14.101 -0.002 0.008 0.002 0.000
1696 4 10.534 6.878 11.754 0.005 0.011 0.001 0.000
1697 4 12.119 4.863 12.100 0.008 -0.008 -0.001 0.000
1698 4 12.583 6.873 13.827 -0.002 -0.002 -0.003 0.000
1699 4 14.218 4.806 13.891 0.004 -0.002 -0.003 -0.000
1700 4 14.217 6.862 12.253 0.011 0.002 0.005 -0.000
1723 4 -1.205 8.364 14.016 -0.002 -0.005 0.000 0.000
1724 4 -0.941 10.435 12.366 0.012 0.007 -0.002 0.000
1725 4 1.128 8.676 12.220 0.004 0.008 0.007 -0.000
1726 4 0.555 10.484 14.122 -0.001 -0.007 0.004 0.000
1727 4 2.597 8.773 14.240 0.004 0.002 0.005 0.000
1728 4 2.802 10.719 12.303 -0.003 0.005 0.001 0.000
1729 4 4.682 8.691 12.404 -0.004 -0.010 -0.003 -0.000
1730 4 4.567 10.568 14.187 -0.007 -0.011 0.002 0.000
1731 4 6.525 8.622 14.352 0.002 -0.005 0.008 0.000
1732 4 6.520 10.651 12.502 0.007 -0.005 0.008 0.000
1733 4 8.590 8.571 12.540 0.004 0.001 0.001 -0.000
1734 4 8.441 10.731 14.234 0.002 0.003 -0.008 0.000
1735 4 10.697 8.765 14.195 0.006 -0.004 -0.006 -0.000
1736 4 10.157 10.791 12.605 -0.000 -0.001 0.001 0.000
1737 4 12.124 8.786 12.536 0.013 0.008 0.010 0.000
1738 4 12.280 10.980 14.250 -0.004 -0.000 -0.001 0.000
1739 4 14.159 8.955 14.024 0.006 -0.008 -0.003 0.000
1740 4 14.346 10.433 12.309 0.001 0.003 0.003 -0.000
1763 4 -1.311 12.607 14.068 -0.008 0.004 0.003 -0.000
1764 4 -1.139 14.838 12.547 -0.001 -0.003 -0.006 0.000
1765 4 0.613 12.470 12.017 0.007 0.006 -0.005 0.000
1766 4 1.020 13.960 14.470 -0.000 0.004 -0.003 0.000
1767 4 2.749 12.310 14.209 0.011 0.000 -0.005 -0.000
1768 4 2.907 14.153 12.051 0.004 0.011 0.002 -0.000
1769 4 4.875 12.362 12.240 0.003 0.005 -0.006 0.000
1770 4 4.658 14.262 13.961 0.011 -0.000 -0.001 0.000
1771 4 6.545 12.647 13.986 0.003 -0.005 -0.002 0.000
1772 4 6.755 14.606 12.340 -0.003 -0.005 -0.007 0.000
1773 4 8.425 12.587 12.388 -0.003 -0.003 0.001 -0.000
1774 4 8.771 14.315 13.982 -0.005 0.006 -0.004 0.000
1775 4 10.302 12.580 14.443 0.006 0.005 0.005 -0.000
1776 4 10.833 14.543 12.375 0.000 -0.001 -0.000 0.000
1777 4 12.470 12.772 12.587 0.007 -0.010 0.005 -0.000
1778 4 12.471 14.496 14.287 -0.012 0.006 0.001 0.000
1779 4 14.453 12.140 13.952 -0.005 -0.010 -0.002 -0.000
1780 4 14.468 14.381 12.548 -0.005 -0.006 -0.006 -0.000
2004 4 -1.205 -0.926 15.758 -0.002 -0.005 -0.002 -0.000
2006 4 0.555 -0.969 17.606 -0.012 0.009 0.001 0.000
2008 4 2.269 -0.744 15.580 0.004 -0.002 -0.002 -0.000
2010 4 4.621 -1.044 17.831 -0.000 -0.008 0.002 -0.000
2012 4 6.136 -0.395 16.167 0.002 0.008 -0.001 -0.000
2014 4 8.002 -0.859 18.240 -0.008 0.005 -0.003 -0.000
2016 4 10.519 -1.063 16.066 -0.001 -0.003 0.000 0.000
2018 4 12.094 -1.292 18.391 -0.001 0.009 0.001 -0.000
2020 4 14.178 -1.017 16.345 -0.004 -0.002 -0.003 -0.000
2043 4 -1.263 1.059 17.981 0.007 -0.005 -0.003 -0.000
2044 4 -1.418 2.732 15.828 -0.005 -0.002 -0.009 -0.000
2045 4 0.627 1.035 15.757 -0.004 -0.006 0.005 -0.000
2046 4 0.453 3.039 17.608 -0.000 -0.004 0.009 -0.000
2047 4 2.365 0.835 17.669 -0.003 -0.009 -0.001 0.000
2048 4 2.447 3.066 16.481 0.006 -0.007 -0.003 -0.000
2049 4 4.059 1.300 15.791 -0.006 -0.002 0.003 -0.000
2050 4 4.248 3.113 17.930 0.003 0.000 -0.001 0.000
2051 4 6.263 1.091 18.339 -0.003 -0.005 0.007 0.000
2052 4 6.464 2.187 15.930 -0.003 0.002 0.000 0.000
2053 4 8.288 0.813 16.276 0.005 0.000 -0.009 -0.000
2054 4 8.692 2.773 17.609 0.004 -0.001 0.007 -0.000
2055 4 10.565 1.079 18.148 0.003 -0.000 -0.009 0.000
2056 4 10.461 3.106 15.990 0.005 0.005 -0.002 -0.000
2057 4 12.731 0.939 15.882 -0.008 0.001 -0.000 0.000
2058 4 12.450 2.824 18.189 -0.005 0.012 0.018 0.000
2059 4 13.481 0.668 17.961 0.004 -0.004 0.002 -0.000
2060 4 14.351 2.811 16.425 0.002 -0.000 0.005 -0.000
2083 4 -1.347 4.640 17.615 0.002 0.014 0.005 -0.000
2084 4 -1.291 6.886 15.904 -0.001 0.001 -0.007 0.000
2085 4 0.967 5.045 16.126 0.005 0.001 0.006 0.000
2086 4 0.623 7.088 18.150 -0.008 -0.001 -0.007 -0.000
2087 4 2.386 4.864 18.310 -0.004 -0.001 -0.008 0.000
2088 4 2.871 6.861 15.918 -0.008 0.009 -0.007 -0.000
2089 4 4.555 4.729 16.084 -0.003 0.007 0.003 0.000
2090 4 4.460 6.429 17.722 -0.004 0.009 -0.006 0.000
2091 4 6.439 4.450 18.088 -0.001 -0.005 -0.001 -0.000
2092 4 6.419 6.958 15.956 -0.002 0.013 -0.004 -0.000
2093 4 8.392 4.756 15.713 -0.006 -0.012 0.001 0.000
2094 4 8.192 6.424 17.812 -0.003 -0.008 0.002 -0.000
2095 4 10.191 4.854 17.847 -0.003 -0.007 0.011 -0.000
2096 4 10.967 6.747 16.404 -0.008 -0.004 -0.009 -0.000
2097 4 12.849 4.220 15.902 0.003 0.003 -0.005 0.000
2098 4 12.039 6.860 18.580 0.001 0.003 -0.008 0.000
2099 4 14.218 5.036 18.592 -0.007 -0.003 -0.010 -0.000
2100 4 13.548 6.403 16.298 0.003 -0.007 -0.001 0.000
2123 4 -1.655 8.735 17.756 -0.003 0.008 -0.003 0.000
2124 4 -1.102 10.253 15.695 -0.006 0.008 -0.001 -0.000
2125 4 0.711 8.427 15.910 -0.002 0.004 0.002 0.000
2126 4 0.570 10.287 18.059 0.004 -0.000 -0.004 0.000
2127 4 2.555 8.592 17.966 0.006 0.001 0.001 -0.000
2128 4 2.576 10.796 15.876 0.000 -0.001 0.001 0.000
2129 4 4.388 9.008 15.935 -0.005 0.005 -0.007 0.000
2130 4 4.626 10.752 18.019 -0.000 0.000 -0.005 -0.000
2131 4 6.160 8.858 17.822 -0.006 -0.001 0.006 0.000
2132 4 6.743 10.190 15.992 -0.002 -0.008 -0.005 -0.000
2133 4 8.643 8.224 15.764 -0.005 0.004 0.001 0.000
2134 4 8.494 10.789 17.833 -0.001 -0.010 0.009 0.000
2135 4 10.012 8.560 17.933 0.004 -0.010 -0.003 -0.000
2136 4 10.225 10.722 16.150 -0.007 0.003 0.002 0.000
2137 4 12.706 8.978 15.936 -0.003 0.000 0.001 0.000
2138 4 11.868 10.622 18.017 0.003 -0.002 -0.004 -0.000
2139 4 14.097 8.316 18.009 0.004 0.005 -0.000 -0.000
2140 4 13.967 11.058 16.155 -0.003 0.005 0.009 -0.000
2163 4 -1.067 12.375 18.286 -0.007 0.006 0.001 -0.000
2164 4 -1.192 14.211 16.255 -0.012 0.006 -0.005 0.000
2165 4 0.668 12.260 16.122 -0.000 0.003 0.005 -0.000
2166 4 0.871 14.287 17.767 0.005 -0.003 -0.001 0.000
2167 4 2.687 12.470 17.621 -0.008 0.003 0.009 -0.000
2168 4 2.996 14.250 15.943 -0.002 0.013 0.002 -0.000
2169 4 4.618 12.450 16.010 0.009 0.002 0.009 0.000
2170 4 4.706 13.991 17.847 0.008 0.002 0.001 0.000
2171 4 6.467 12.516 17.963 0.003 -0.001 0.003 0.000
2172 4 6.411 14.528 15.981 -0.003 0.006 -0.005 0.000
2173 4 8.473 12.524 16.048 -0.003 -0.003 0.005 -0.000
2174 4 8.085 13.919 17.982 -0.004 -0.016 0.001 0.000
2175 4 10.108 12.604 18.033 -0.010 0.002 -0.000 0.000
2176 4 10.526 14.788 16.065 -0.005 0.005 -0.001 -0.000
2177 4 12.230 12.683 16.166 0.000 -0.004 -0.000 -0.000
2178 4 12.034 14.169 18.218 0.001 0.011 -0.011 0.000
2179 4 13.703 12.454 18.107 -0.003 -0.003 -0.001 0.000
2180 4 13.946 14.423 16.180 0.004 -0.005 -0.010 -0.000
2404 4 -1.545 -1.037 19.739 -0.009 0.004 -0.004 0.000
2408 4 3.032 -1.312 19.846 -0.009 0.005 -0.009 0.000
2412 4 6.156 -1.030 19.913 0.001 0.006 -0.016 -0.000
2416 4 9.949 -1.048 19.968 -0.006 -0.009 -0.003 0.000
2420 4 13.750 -0.993 20.265 0.011 0.006 0.002 0.000
2443 4 -0.974 0.635 21.443 -0.003 -0.008 -0.005 -0.000
2444 4 -1.355 2.765 19.767 0.004 -0.007 0.003 0.000
2445 4 0.807 0.514 19.744 0.000 -0.001 0.005 -0.000
2448 4 2.294 2.521 19.445 0.006 -0.007 -0.002 0.000
2449 4 4.383 1.044 19.805 -0.003 -0.005 0.001 -0.000
2452 4 6.262 2.895 20.070 0.001 0.000 -0.004 -0.000
2453 4 8.123 1.263 19.905 -0.006 -0.001 -0.007 0.000
2456 4 10.181 3.003 19.645 0.005 0.007 -0.000 -0.000
2457 4 11.897 1.088 20.335 -0.001 0.011 -0.004 0.000
2460 4 13.963 2.525 19.817 -0.002 0.001 0.001 -0.000
2484 4 -1.393 6.869 19.831 0.003 0.019 0.006 0.000
2485 4 0.206 4.799 19.844 0.006 -0.003 -0.005 -0.000
2488 4 2.424 7.060 19.864 -0.002 -0.001 -0.007 -0.000
2489 4 4.300 4.871 20.085 -0.009 -0.001 -0.009 0.000
2492 4 6.113 6.274 19.372 -0.005 -0.001 0.002 -0.000
2493 4 8.092 4.504 20.033 -0.001 0.001 -0.005 0.000
2496 4 9.881 6.560 19.768 -0.009 0.000 0.011 -0.000
2497 4 11.967 4.811 20.004 -0.008 -0.006 0.004 0.000
2500 4 14.200 6.846 20.481 -0.002 -0.005 -0.007 -0.000
2524 4 -0.993 10.364 19.787 0.002 -0.007 0.004 -0.000
2525 4 0.837 8.735 19.886 0.006 0.003 0.005 0.000
2528 4 2.786 10.111 20.021 0.002 0.006 -0.005 0.000
2529 4 4.432 8.252 19.937 0.004 0.000 0.001 0.000
2532 4 5.875 10.372 20.089 0.000 0.006 0.007 0.000
2533 4 7.591 8.290 19.701 -0.012 -0.002 0.007 0.000
2536 4 10.362 10.681 19.848 0.007 0.005 -0.000 0.000
2537 4 12.168 8.652 19.908 -0.007 -0.010 0.012 0.000
2540 4 13.742 10.663 20.261 0.007 -0.001 0.001 0.000
2564 4 -0.883 14.445 19.424 0.002 -0.004 -0.001 -0.000
2565 4 0.948 12.698 19.745 0.004 -0.007 -0.006 0.000
2568 4 2.691 14.372 19.699 0.003 -0.001 -0.006 -0.000
2569 4 4.293 12.510 19.510 0.006 0.002 -0.013 0.000
2572 4 6.572 14.152 20.401 -0.003 -0.003 -0.000 0.000
2573 4 8.446 12.128 19.952 -0.007 -0.002 -0.005 -0.000
2576 4 9.821 14.505 19.950 -0.006 0.005 -0.008 0.000
2577 4 12.207 12.749 20.058 -0.004 0.012 -0.002 -0.000
2580 4 14.131 14.307 20.601 -0.001 -0.004 0.004 -0.000
2486 4 0.481 6.824 21.840 -0.004 0.003 0.004 -0.000
2458 4 12.326 2.847 22.176 0.008 0.006 0.003 0.000
2459 4 13.673 0.832 22.088 -0.005 0.002 0.003 -0.000
2454 4 8.234 2.970 22.078 -0.006 0.004 -0.004 -0.000
2538 4 12.129 10.937 22.229 -0.011 0.010 -0.002 0.000
2578 4 12.039 14.107 22.245 0.001 -0.008 -0.008 -0.000
2530 4 4.467 10.387 22.183 0.009 0.004 0.000 -0.000
2523 4 -0.981 8.576 21.962 0.003 -0.012 -0.000 -0.000
2526 4 0.629 10.515 21.434 -0.003 -0.000 0.002 -0.000
2534 4 8.180 10.314 21.600 0.006 -0.013 -0.007 0.000
2483 4 -1.212 4.640 22.118 0.007 -0.002 -0.014 -0.000
2563 4 -1.106 12.500 21.571 -0.001 0.000 -0.013 -0.000
2406 4 0.660 -0.846 22.028 0.001 -0.014 0.002 0.000
2447 4 2.684 0.946 21.749 -0.003 -0.008 -0.006 0.000
2494 4 8.662 6.320 21.952 0.001 0.004 0.006 0.000
2490 4 4.366 6.777 21.824 0.001 -0.003 -0.004 -0.000
2567 4 2.518 12.445 21.711 -0.011 -0.007 0.007 0.000
2527 4 2.228 8.694 21.968 0.003 0.003 0.006 -0.000
2498 4 11.947 6.929 21.702 0.007 -0.007 0.007 0.000
2570 4 4.498 14.062 22.038 0.001 0.003 -0.005 -0.000
2487 4 2.329 4.918 21.503 -0.004 0.005 -0.009 0.000
2575 4 9.946 12.241 21.909 -0.005 0.007 -0.005 -0.000
2499 4 14.014 4.734 21.792 -0.005 0.006 0.002 0.000
2531 4 6.541 8.187 21.718 0.002 -0.006 -0.006 -0.000
2495 4 10.319 4.745 21.472 0.008 -0.001 0.005 -0.000
2446 4 0.570 2.694 22.013 0.005 -0.002 0.012 -0.000
2579 4 14.133 12.567 22.088 -0.007 -0.004 0.007 0.000
2414 4 7.815 -0.991 21.777 -0.001 -0.004 -0.015 0.000
2574 4 8.309 14.556 22.086 -0.003 0.000 0.007 0.000
2571 4 6.827 12.428 22.100 0.002 0.002 -0.001 0.000
2451 4 6.346 1.308 21.785 0.001 0.002 -0.004 0.000
2455 4 9.709 0.745 21.395 -0.004 -0.001 -0.002 -0.000
2491 4 5.975 4.849 21.807 -0.000 -0.006 -0.007 -0.000
2539 4 14.116 9.198 22.257 -0.003 -0.000 0.006 -0.000
2566 4 0.710 14.387 21.689 0.011 -0.002 0.008 0.000
182 4 16.036 14.419 -0.822 0.003 -0.016 0.016 -0.000
82 4 -2.736 6.819 -1.045 0.001 0.008 0.004 -0.000
1609 4 4.447 -2.484 12.136 -0.002 0.001 -0.003 0.000
2003 4 -1.024 -2.855 17.385 0.006 -0.009 -0.004 0.000
42 4 -2.707 3.378 -1.599 -0.000 0.007 -0.008 0.000
481 4 -2.881 5.107 0.845 0.005 -0.009 0.007 -0.000
2462 4 15.501 2.580 21.811 0.012 0.007 -0.001 0.000
122 4 -2.939 10.637 -1.038 -0.003 0.000 -0.015 0.000
2013 4 8.444 -2.702 15.911 0.003 -0.006 0.002 -0.000
2022 4 15.992 -0.646 18.084 0.015 0.002 0.002 0.000
2062 4 16.040 2.564 18.323 0.002 -0.012 -0.004 0.000
803 4 -0.769 -2.432 6.566 0.001 -0.004 0.005 -0.000
1607 4 2.580 -2.831 13.843 -0.004 -0.007 0.010 0.000
2011 4 6.404 -2.639 17.465 -0.002 0.000 -0.005 -0.000
60 4 14.161 3.163 -3.069 0.008 0.003 0.006 -0.000
1762 4 -2.880 14.603 14.404 -0.007 0.006 0.005 0.000
2422 4 15.825 -1.409 22.348 -0.009 -0.007 0.005 0.000
15 4 10.026 -2.877 -1.056 0.005 -0.001 -0.008 -0.000
61 4 16.100 1.269 -2.746 0.007 -0.000 0.002 0.000
1005 4 1.054 15.968 4.511 0.002 -0.004 0.006 -0.000
100 4 14.559 6.841 -2.925 -0.004 0.008 0.003 -0.000
97 4 12.469 4.916 -2.776 -0.023 0.004 -0.002 -0.000
20 4 14.114 -1.027 -2.847 0.007 0.002 -0.002 -0.000
2061 4 15.548 0.956 16.284 -0.004 0.002 0.002 0.000
1403 4 -0.864 16.001 10.244 -0.007 0.014 0.000 0.000
1213 4 8.506 -2.943 8.590 0.003 -0.000 0.011 0.000
409 4 4.564 -2.626 0.355 0.002 0.011 0.002 0.000
168 4 2.677 14.192 -2.946 -0.009 -0.000 -0.011 -0.000
2461 4 15.871 0.389 20.294 0.002 0.001 -0.016 -0.000
1661 4 16.095 0.789 12.238 0.007 0.002 0.002 0.000
1202 4 -3.008 -1.476 10.481 -0.013 0.000 0.009 0.000
1761 4 -2.928 12.268 12.140 -0.006 0.005 -0.004 0.000
203 4 -1.242 16.108 -0.972 0.006 0.003 -0.013 0.000
805 4 0.633 -2.720 4.507 -0.004 -0.004 0.001 -0.000
1611 4 6.221 -2.533 14.245 0.009 -0.006 -0.002 -0.000
2009 4 4.452 -2.930 15.837 0.002 -0.002 0.006 0.000
101 4 15.933 4.737 -3.175 0.006 -0.001 -0.005 0.000
1662 4 15.716 2.902 14.392 -0.004 0.009 0.006 0.000
2403 4 -1.111 -2.776 21.840 0.012 0.002 -0.001 -0.000
1217 4 12.370 -2.532 8.085 -0.003 -0.000 0.014 0.000
1617 4 11.939 -2.639 12.537 0.004 0.001 0.004 -0.000
461 4 15.966 1.154 0.774 -0.007 0.005 -0.007 -0.000
817 4 12.016 -2.744 4.997 0.004 -0.003 -0.003 0.000
415 4 10.091 -2.531 2.862 0.008 0.003 -0.004 -0.000
2535 4 9.826 8.574 21.172 -0.010 0.001 0.013 -0.000
16 4 10.193 -1.006 -2.715 -0.002 -0.004 -0.001 0.000
2141 4 15.874 8.683 16.140 -0.002 -0.003 -0.007 0.000
941 4 16.020 9.160 4.540 -0.001 -0.002 0.001 0.000
2101 4 15.538 5.040 16.545 -0.008 -0.008 0.004 0.000
2161 4 -2.739 12.193 15.679 -0.007 0.016 -0.003 0.000