ITEM: TIMESTEP
47000
ITEM: NUMBER OF ATOMS
32000
ITEM: BOX BOUNDS pp pp pp
-2.997670 73.477670
-3.025536 73.505536
-2.968983 73.448983
ITEM: ATOMS id type x y z vx vy vz q
6 4 0.653 -1.181 -0.670 -0.007 0.006 -0.001 0.000
10 4 4.676 -1.564 -1.003 -0.009 -0.016 0.005 0.000
14 4 7.896 -1.316 -0.867 -0.004 0.000 -0.002 -0.000
18 4 12.084 -0.955 -0.815 0.004 0.000 -0.006 -0.000
43 4 -1.175 0.661 -0.889 -0.001 -0.006 -0.015 0.000
46 4 0.865 2.560 -0.902 0.004 0.007 -0.005 0.000
47 4 2.673 0.485 -0.905 -0.005 0.007 0.011 0.000
50 4 4.499 2.368 -1.276 0.001 -0.001 -0.006 0.000
51 4 6.232 0.740 -0.873 0.006 0.008 -0.008 -0.000
54 4 8.194 2.199 -1.294 0.004 -0.005 -0.005 -0.000
55 4 10.153 0.369 -0.793 -0.004 -0.004 0.003 -0.000
58 4 12.184 2.553 -1.103 -0.001 -0.002 0.009 -0.000
59 4 14.168 0.715 -1.027 0.002 -0.000 -0.002 -0.000
83 4 -1.254 4.759 -1.528 0.003 -0.009 -0.007 0.000
86 4 0.510 6.669 -1.080 -0.002 0.010 -0.006 0.000
87 4 2.769 4.822 -1.233 -0.007 0.005 -0.002 0.000
90 4 4.810 6.666 -1.099 -0.002 0.006 -0.001 0.000
91 4 6.677 4.495 -1.290 -0.002 0.008 -0.008 0.000
94 4 8.193 6.709 -0.961 -0.002 -0.006 -0.001 0.000
95 4 9.867 4.535 -1.055 -0.001 0.005 0.001 -0.000
98 4 11.854 6.530 -1.374 0.004 0.015 0.005 -0.000
99 4 13.944 4.701 -1.112 -0.013 0.000 -0.000 -0.000
123 4 -1.739 8.517 -0.997 -0.002 -0.006 -0.003 0.000
126 4 0.548 9.871 -1.054 -0.004 -0.000 -0.004 0.000
127 4 2.750 8.304 -1.000 0.005 -0.002 -0.003 -0.000
130 4 4.872 10.146 -1.182 -0.005 0.003 0.001 -0.000
131 4 6.905 8.376 -0.855 0.011 -0.005 0.004 0.000
134 4 8.168 10.136 -1.470 0.003 0.005 -0.009 0.000
135 4 10.167 8.413 -1.513 -0.003 0.000 -0.004 0.000
138 4 12.125 10.517 -1.292 0.006 -0.019 0.000 0.000
139 4 14.147 8.628 -1.237 0.002 -0.005 -0.008 -0.000
163 4 -1.314 12.130 -1.140 0.001 -0.001 -0.000 0.000
166 4 0.795 13.916 -0.994 -0.005 -0.002 0.004 0.000
167 4 2.592 11.876 -0.664 -0.006 -0.001 0.004 -0.000
170 4 4.550 14.719 -1.278 0.001 -0.001 0.002 -0.000
171 4 6.457 12.558 -1.086 0.004 -0.001 -0.012 -0.000
174 4 8.410 14.575 -1.660 0.002 0.001 0.003 -0.000
175 4 10.002 12.412 -1.583 0.010 0.003 0.001 -0.000
178 4 12.121 14.192 -1.024 -0.002 0.008 -0.013 0.000
179 4 13.950 12.192 -1.043 -0.000 -0.005 -0.012 0.000
404 4 -1.544 -1.140 0.923 0.001 0.002 0.007 -0.000
406 4 1.034 -1.102 2.619 0.002 -0.003 0.001 -0.000
408 4 2.803 -1.102 0.912 -0.003 0.002 -0.002 -0.000
410 4 4.262 -0.873 2.889 -0.000 -0.005 -0.001 -0.000
412 4 6.193 -1.116 1.010 -0.003 0.004 -0.009 0.000
414 4 8.063 -0.805 2.996 -0.008 0.001 -0.007 0.000
416 4 10.212 -1.184 0.934 0.006 0.005 -0.007 -0.000
418 4 12.128 -1.211 2.960 0.004 -0.007 0.002 -0.000
420 4 13.936 -1.279 1.169 -0.000 0.003 0.005 -0.000
443 4 -0.866 0.830 2.982 0.009 0.001 0.001 0.000
444 4 -1.003 2.624 0.688 0.001 0.006 -0.002 0.000
445 4 0.802 1.062 1.246 0.008 -0.005 -0.000 -0.000
446 4 0.937 2.851 2.601 -0.003 0.003 -0.006 -0.000
447 4 2.809 0.856 2.816 -0.002 0.006 -0.001 -0.000
448 4 2.902 2.587 1.148 -0.002 0.006 0.007 -0.000
449 4 4.404 0.753 1.056 -0.002 -0.001 -0.003 -0.000
450 4 4.630 2.695 3.230 0.002 0.004 -0.001 0.000
451 4 6.255 0.947 2.763 -0.001 -0.005 -0.005 0.000
452 4 6.234 2.492 0.712 0.003 0.001 0.004 -0.000
453 4 8.457 0.481 0.781 0.000 0.006 0.004 -0.000
454 4 7.982 2.816 3.421 -0.008 -0.001 0.012 0.000
455 4 9.897 0.823 3.005 0.001 -0.007 -0.001 -0.000
456 4 10.106 2.372 0.635 0.007 -0.000 -0.008 -0.000
457 4 12.029 0.564 1.158 0.002 0.005 0.005 -0.000
458 4 12.385 2.723 3.116 -0.006 0.004 -0.004 0.000
459 4 13.878 0.490 2.852 -0.014 0.004 -0.007 0.000
460 4 14.230 2.606 0.965 0.004 -0.004 -0.001 0.000
483 4 -1.101 4.589 2.551 0.000 -0.002 0.001 -0.000
484 4 -1.341 6.609 0.992 0.004 -0.002 0.007 -0.000
485 4 0.932 4.759 0.460 0.002 -0.001 -0.009 0.000
486 4 0.725 6.454 2.529 -0.004 0.009 0.005 -0.000
487 4 2.991 4.435 2.961 0.000 0.001 0.001 -0.000
488 4 2.883 6.456 0.779 -0.001 -0.006 -0.005 -0.000
489 4 4.564 4.278 0.763 -0.005 0.004 0.004 -0.000
490 4 4.543 6.494 2.737 0.002 0.008 -0.003 -0.000
491 4 6.634 4.444 2.561 0.000 0.001 0.004 -0.000
492 4 6.351 6.418 0.605 -0.012 -0.007 -0.002 0.000
493 4 8.197 4.267 0.594 0.001 0.003 -0.004 -0.000
494 4 8.426 6.312 2.816 -0.004 0.000 -0.000 -0.000
495 4 9.943 4.364 2.745 0.002 0.005 -0.016 -0.000
496 4 10.122 6.094 0.770 0.003 -0.004 -0.001 -0.000
497 4 12.175 4.532 1.268 0.000 -0.006 -0.005 0.000
498 4 12.004 6.622 3.038 -0.003 -0.005 -0.004 0.000
499 4 14.444 4.906 2.617 -0.006 -0.002 0.012 0.000
500 4 14.156 6.553 0.276 -0.004 -0.013 0.002 -0.000
523 4 -1.449 8.534 2.527 -0.003 0.003 -0.006 -0.000
524 4 -1.259 10.471 0.927 -0.004 0.002 -0.006 -0.000
525 4 0.777 8.251 0.927 -0.001 0.005 -0.005 -0.000
526 4 0.738 10.119 2.473 -0.002 0.003 0.003 -0.000
527 4 2.487 8.115 2.570 -0.003 0.008 0.006 -0.000
528 4 2.695 10.099 1.300 -0.005 -0.015 0.004 -0.000
529 4 4.664 8.156 1.002 -0.001 0.008 -0.000 -0.000
530 4 4.828 10.208 2.503 -0.003 -0.001 -0.007 0.000
531 4 6.979 8.474 2.663 0.001 -0.005 -0.010 0.000
532 4 6.406 10.771 0.326 -0.005 0.006 -0.007 -0.000
533 4 8.837 8.305 0.523 -0.001 -0.011 0.003 0.000
534 4 8.243 10.705 2.067 0.013 -0.003 0.006 0.000
535 4 10.389 8.511 2.534 0.008 0.004 -0.005 -0.000
536 4 10.165 10.677 0.421 0.001 0.005 0.009 -0.000
537 4 12.105 8.303 0.347 0.003 0.002 -0.006 -0.000
538 4 11.967 10.266 2.660 -0.009 0.008 -0.005 0.000
539 4 14.306 8.342 2.595 -0.005 -0.005 0.009 0.000
540 4 13.666 10.319 0.816 -0.005 -0.003 -0.004 0.000
563 4 -1.832 12.432 2.877 0.010 0.009 -0.008 0.000
564 4 -1.018 13.911 0.898 0.006 -0.007 0.013 0.000
565 4 0.812 12.059 0.626 0.002 0.000 0.002 -0.000
566 4 1.122 13.941 2.331 -0.002 0.001 -0.003 -0.000
567 4 2.401 12.052 3.125 0.003 0.006 -0.008 -0.000
568 4 3.099 14.073 0.639 0.001 0.006 0.004 -0.000
569 4 4.543 12.280 0.839 -0.001 -0.005 -0.001 -0.000
570 4 4.491 14.399 2.813 0.011 -0.008 -0.000 -0.000
571 4 6.366 12.224 2.463 0.002 0.007 -0.004 0.000
572 4 6.293 14.405 0.154 -0.001 -0.001 0.001 -0.000
573 4 8.363 12.628 0.263 0.001 -0.003 0.003 -0.000
574 4 8.081 14.158 2.490 -0.011 -0.000 0.001 0.000
575 4 10.179 12.059 2.420 0.002 -0.006 0.003 -0.000
576 4 10.617 14.268 0.867 -0.000 -0.004 -0.007 -0.000
577 4 12.068 12.366 0.551 -0.006 -0.008 -0.001 0.000
578 4 11.781 14.383 3.001 0.014 -0.003 -0.007 -0.000
579 4 13.864 12.275 2.646 -0.000 -0.002 -0.002 -0.000
580 4 13.513 14.072 0.984 0.004 0.006 -0.001 -0.000
804 4 -1.328 -1.111 4.514 -0.001 -0.009 0.004 0.000
806 4 0.662 -0.951 6.458 0.002 -0.002 0.003 0.000
808 4 2.646 -1.331 5.140 0.011 -0.010 0.011 -0.000
810 4 4.735 -1.320 6.719 -0.003 -0.000 -0.006 -0.000
812 4 6.159 -0.637 4.684 -0.000 -0.000 -0.008 0.000
814 4 8.291 -0.926 6.631 -0.005 0.002 0.002 -0.000
816 4 10.397 -0.869 4.621 0.002 0.005 -0.000 -0.000
818 4 12.479 -1.354 6.835 0.013 0.002 -0.002 -0.000
820 4 14.202 -1.547 4.555 0.002 0.007 0.002 -0.000
843 4 -0.982 0.811 6.180 0.006 0.012 -0.007 0.000
844 4 -0.996 2.920 4.399 0.010 -0.001 -0.009 0.000
845 4 0.805 1.015 4.642 -0.007 -0.005 0.012 -0.000
846 4 0.761 2.829 6.581 0.004 0.012 0.004 -0.000
847 4 2.372 0.808 6.745 -0.010 -0.008 -0.005 -0.000
848 4 2.467 2.708 4.886 -0.011 -0.000 -0.005 -0.000
849 4 4.147 0.789 5.115 -0.010 -0.002 -0.007 0.000
850 4 4.550 2.516 6.648 0.001 -0.001 0.018 0.000
851 4 6.457 0.712 6.613 0.008 0.007 -0.010 0.000
852 4 6.374 2.742 5.205 -0.001 -0.003 0.009 0.000
853 4 8.399 0.808 4.873 0.007 0.008 -0.005 0.000
854 4 8.784 2.544 6.814 -0.009 -0.011 0.003 -0.000
855 4 10.518 0.664 6.474 -0.002 0.003 -0.002 -0.000
856 4 10.328 2.740 4.802 0.004 0.006 0.003 0.000
857 4 12.579 0.908 4.719 -0.006 0.004 0.006 0.000
858 4 12.030 2.592 6.451 -0.003 -0.000 0.000 0.000
859 4 14.135 0.564 6.719 -0.004 -0.010 0.003 0.000
860 4 14.360 2.842 4.474 -0.008 0.013 -0.005 0.000
883 4 -0.886 4.804 6.381 -0.001 0.001 -0.003 -0.000
884 4 -1.309 6.404 4.483 0.000 -0.006 0.010 -0.000
885 4 0.813 4.785 4.620 0.002 0.009 0.002 -0.000
886 4 0.998 6.785 6.533 0.001 0.001 -0.000 -0.000
887 4 2.753 4.422 6.850 -0.002 -0.001 0.002 -0.000
888 4 2.593 6.677 4.451 0.002 0.002 -0.002 -0.000
889 4 4.516 4.539 5.022 0.007 -0.000 0.008 0.000
890 4 4.620 6.760 6.608 0.003 0.001 -0.008 0.000
891 4 6.183 4.718 6.966 0.000 0.007 0.000 0.000
892 4 6.348 6.556 4.762 -0.001 0.002 0.011 -0.000
893 4 8.132 4.804 5.071 0.006 -0.007 -0.000 -0.000
894 4 8.124 6.464 6.658 0.012 -0.000 -0.005 -0.000
895 4 10.416 4.586 6.598 0.002 -0.001 0.007 -0.000
896 4 10.166 6.595 4.634 0.001 0.003 0.003 -0.000
897 4 12.565 4.803 4.634 -0.006 -0.007 0.001 0.000
898 4 12.373 6.780 6.736 0.001 -0.005 0.001 0.000
899 4 14.368 4.435 6.212 0.002 0.001 0.008 0.000
900 4 14.117 6.494 4.808 0.010 0.005 -0.007 0.000
923 4 -0.920 8.492 6.221 0.006 -0.005 -0.016 0.000
924 4 -1.284 10.452 4.538 -0.002 -0.002 -0.009 0.000
925 4 0.287 8.221 4.096 -0.003 0.002 -0.003 -0.000
926 4 0.593 10.357 6.723 0.000 0.000 -0.011 0.000
927 4 3.056 8.543 6.671 0.001 0.009 -0.005 -0.000
928 4 2.406 9.437 4.785 0.001 0.002 -0.006 0.000
929 4 4.494 8.613 4.418 0.011 0.010 -0.003 0.000
930 4 4.938 10.105 6.255 0.003 0.007 0.013 0.000
931 4 6.830 8.379 6.529 0.006 -0.006 -0.003 0.000
932 4 6.640 10.634 4.418 -0.003 0.001 -0.010 0.000
933 4 8.445 8.574 4.629 0.000 -0.001 -0.004 -0.000
934 4 8.515 10.401 6.862 0.003 -0.002 -0.008 0.000
935 4 10.267 8.734 6.470 0.004 0.004 0.002 -0.000
936 4 10.122 10.697 4.646 0.003 0.000 -0.000 0.000
937 4 12.020 8.919 4.837 0.005 0.002 -0.009 0.000
938 4 12.126 10.795 6.551 -0.004 0.001 0.002 -0.000
939 4 14.218 8.513 6.166 0.005 -0.010 0.005 0.000
940 4 13.879 10.717 4.726 0.007 0.003 0.002 0.000
963 4 -1.066 12.043 6.537 -0.004 0.001 -0.004 0.000
964 4 -1.531 14.229 4.635 -0.001 0.000 0.007 0.000
965 4 0.708 12.090 4.649 -0.007 -0.001 -0.001 0.000
966 4 0.495 14.281 6.281 0.002 -0.006 0.005 0.000
967 4 2.809 11.976 6.435 -0.002 0.001 -0.008 -0.000
968 4 2.451 14.059 4.503 -0.003 0.002 -0.008 -0.000
969 4 4.680 12.291 4.116 0.009 -0.004 0.013 0.000
970 4 4.661 13.993 6.316 0.002 0.004 0.006 -0.000
971 4 6.737 12.269 6.331 -0.006 0.007 0.003 0.000
972 4 6.563 13.914 4.351 -0.003 -0.006 0.005 0.000
973 4 8.412 12.644 4.703 -0.008 -0.002 -0.004 0.000
974 4 8.421 14.389 6.411 0.004 -0.005 -0.002 0.000
975 4 10.152 12.288 6.501 0.002 -0.006 -0.000 0.000
976 4 9.857 14.393 4.702 0.002 -0.005 -0.009 0.000
977 4 11.972 12.428 4.424 0.010 -0.007 -0.004 -0.000
978 4 12.145 14.197 6.146 -0.002 -0.002 -0.007 -0.000
979 4 14.138 12.827 6.538 0.005 -0.004 0.010 0.000
980 4 14.141 14.546 4.589 -0.003 -0.004 -0.001 -0.000
1204 4 -1.233 -0.901 8.406 -0.001 -0.004 -0.008 0.000
1206 4 0.521 -1.072 9.996 -0.005 0.003 0.002 -0.000
1208 4 2.813 -0.966 8.693 0.010 0.009 -0.004 -0.000
1210 4 4.252 -1.129 10.608 -0.005 0.003 -0.001 -0.000
1212 4 6.602 -0.691 8.560 0.005 0.006 0.007 0.000
1214 4 8.333 -0.626 10.499 -0.001 -0.003 -0.003 0.000
1216 4 10.291 -1.399 9.266 -0.004 -0.004 0.001 -0.000
1218 4 12.402 -1.318 10.386 -0.001 -0.016 0.010 0.000
1220 4 14.738 -1.177 8.680 -0.001 0.010 -0.000 0.000
1243 4 -1.285 0.935 10.342 -0.000 -0.003 0.001 0.000
1244 4 -1.342 2.673 8.058 -0.001 -0.013 0.001 0.000
1245 4 0.738 0.981 8.423 0.003 -0.004 0.001 -0.000
1246 4 0.654 2.860 10.284 -0.001 0.003 -0.007 0.000
1247 4 2.625 1.106 10.349 0.011 -0.008 -0.005 -0.000
1248 4 2.508 2.882 8.442 -0.004 -0.009 -0.008 -0.000
1249 4 4.644 0.809 8.337 0.007 0.002 0.006 -0.000
1250 4 4.668 2.847 10.389 -0.001 0.007 -0.006 0.000
1251 4 6.497 1.160 10.454 0.007 -0.020 -0.002 -0.000
1252 4 6.845 2.495 8.218 0.006 -0.002 0.007 0.000
1253 4 8.598 0.582 8.556 -0.011 -0.007 0.001 -0.000
1254 4 8.981 2.633 10.175 -0.008 -0.001 -0.005 -0.000
1255 4 10.602 0.697 10.300 -0.005 0.001 0.009 -0.000
1256 4 10.666 2.738 8.495 -0.004 -0.002 -0.011 -0.000
1257 4 12.186 0.907 8.606 -0.015 0.005 0.006 -0.000
1258 4 12.213 2.786 10.760 0.000 0.004 0.006 -0.000
1259 4 14.303 1.037 10.435 -0.001 0.006 -0.007 0.000
1260 4 14.265 2.972 8.721 -0.003 -0.004 0.003 0.000
1283 4 -1.078 4.571 10.360 -0.002 -0.004 -0.002 0.000
1284 4 -1.061 6.610 8.510 -0.004 0.012 -0.002 -0.000
1285 4 0.618 4.776 8.294 -0.006 0.007 0.001 -0.000
1286 4 0.719 6.749 10.258 -0.004 0.000 0.012 -0.000
1287 4 2.633 4.736 10.580 0.001 0.001 0.003 -0.000
1288 4 2.909 6.426 8.563 -0.008 -0.000 -0.006 -0.000
1289 4 4.597 4.407 8.751 -0.006 0.006 -0.003 0.000
1290 4 5.207 6.720 11.197 -0.001 -0.012 -0.010 0.000
1291 4 7.015 4.203 10.518 -0.005 -0.007 -0.005 0.000
1292 4 6.703 6.603 8.767 -0.008 -0.012 0.002 0.000
1293 4 8.386 4.688 8.082 0.006 0.004 -0.007 -0.000
1294 4 8.535 6.645 10.364 0.001 0.012 -0.000 0.000
1295 4 10.297 5.068 9.775 0.004 -0.003 0.005 -0.000
1296 4 10.410 6.772 8.112 -0.002 -0.007 -0.002 -0.000
1297 4 12.643 4.665 8.707 -0.003 0.004 0.002 0.000
1298 4 12.185 6.726 10.304 -0.001 -0.001 0.004 -0.000
1299 4 13.977 4.774 10.746 -0.001 -0.003 0.004 0.000
1300 4 13.950 6.916 8.663 0.003 -0.008 -0.001 0.000
1323 4 -1.245 8.558 10.507 -0.001 0.000 -0.013 -0.000
1324 4 -1.237 10.147 8.379 0.005 -0.004 -0.005 0.000
1325 4 0.973 8.460 8.498 0.000 -0.003 0.003 -0.000
1326 4 1.062 10.701 10.081 -0.003 -0.003 -0.004 -0.000
1327 4 2.695 8.543 10.220 0.005 0.001 -0.007 -0.000
1328 4 3.231 10.769 8.533 0.009 -0.000 0.011 -0.000
1329 4 4.708 8.340 8.518 -0.002 -0.010 -0.004 0.000
1330 4 4.771 10.770 10.502 -0.001 -0.008 -0.007 -0.000
1331 4 6.433 8.513 10.325 0.001 -0.003 0.005 0.000
1332 4 6.570 10.267 8.483 0.002 0.008 0.007 0.000
1333 4 8.467 8.414 8.670 -0.014 -0.005 0.001 -0.000
1334 4 8.399 10.451 10.384 -0.001 0.001 -0.001 -0.000
1335 4 10.529 8.509 10.014 0.007 -0.004 -0.007 -0.000
1336 4 10.181 10.371 8.729 -0.003 -0.007 -0.005 -0.000
1337 4 12.191 8.855 8.465 -0.000 0.004 -0.007 0.000
1338 4 12.112 10.796 10.383 0.007 -0.004 -0.010 -0.000
1339 4 13.991 8.988 10.196 -0.004 0.007 0.005 0.000
1340 4 14.038 10.405 8.443 -0.010 0.000 -0.004 0.000
1363 4 -1.114 12.333 10.301 0.006 -0.009 -0.000 -0.000
1364 4 -0.818 14.520 8.299 -0.001 0.001 0.001 0.000
1365 4 0.636 12.367 8.271 0.006 -0.002 0.008 -0.000
1366 4 0.602 13.884 10.243 -0.003 0.012 -0.009 0.000
1367 4 2.778 12.501 10.350 0.000 -0.002 -0.002 -0.000
1368 4 2.942 13.959 8.473 -0.006 -0.004 0.003 -0.000
1369 4 5.131 12.380 8.250 0.001 -0.003 -0.006 -0.000
1370 4 4.723 13.904 10.541 -0.008 -0.003 0.007 0.000
1371 4 6.839 12.423 10.390 -0.006 -0.005 -0.003 -0.000
1372 4 6.391 14.216 8.534 0.002 -0.012 -0.005 -0.000
1373 4 8.566 12.411 8.441 0.000 -0.005 0.001 -0.000
1374 4 8.511 14.310 10.171 0.007 -0.007 0.002 -0.000
1375 4 10.065 12.465 10.398 0.004 -0.002 0.006 -0.000
1376 4 10.670 14.064 7.976 0.007 0.006 -0.007 0.000
1377 4 12.539 12.720 8.445 0.003 0.000 -0.001 0.000
1378 4 12.056 13.945 10.423 -0.002 -0.004 0.003 0.000
1379 4 14.046 11.985 10.540 -0.005 -0.011 -0.004 -0.000
1380 4 14.190 14.395 8.624 0.009 0.003 0.002 0.000
1604 4 -1.319 -1.295 12.161 -0.006 0.002 -0.004 -0.000
1606 4 0.421 -1.532 14.542 -0.011 -0.003 -0.008 0.000
1608 4 2.170 -0.920 11.818 -0.005 -0.002 0.005 -0.000
1610 4 4.362 -1.011 14.081 -0.002 0.006 0.006 -0.000
1612 4 6.181 -0.887 12.139 0.006 0.003 0.002 -0.000
1614 4 8.256 -0.788 14.375 0.004 0.001 -0.006 -0.000
1616 4 10.591 -1.191 12.178 -0.001 -0.009 0.004 0.000
1618 4 12.435 -0.862 13.908 -0.002 0.006 0.004 0.000
1620 4 14.364 -1.219 12.454 -0.000 0.002 -0.007 -0.000
1643 4 -0.992 0.713 13.985 -0.004 -0.006 0.001 0.000
1644 4 -1.079 3.152 12.471 0.003 -0.003 0.003 0.000
1645 4 0.574 0.783 11.957 -0.007 0.003 0.013 0.000
1646 4 0.531 2.507 14.175 0.009 -0.007 -0.012 0.000
1647 4 2.380 0.656 14.609 -0.003 -0.006 0.002 0.000
1648 4 2.563 2.551 12.141 0.006 0.006 0.011 -0.000
1649 4 4.518 0.891 12.154 0.002 -0.005 0.006 -0.000
1650 4 4.380 2.742 14.011 -0.003 -0.001 -0.001 0.000
1651 4 6.270 0.940 14.107 -0.011 0.007 -0.001 -0.000
1652 4 6.913 2.751 12.286 -0.004 0.004 -0.011 0.000
1653 4 8.347 0.718 12.288 -0.001 -0.001 -0.004 0.000
1654 4 8.406 2.491 14.549 -0.000 0.003 -0.004 0.000
1655 4 10.207 0.506 13.943 -0.019 0.002 0.004 0.000
1656 4 10.179 2.327 12.432 0.001 -0.005 -0.003 0.000
1657 4 12.388 0.790 12.525 0.005 -0.003 -0.000 0.000
1658 4 12.248 2.903 13.794 -0.002 -0.005 -0.010 0.000
1659 4 14.740 0.744 14.406 0.006 -0.006 -0.002 0.000
1660 4 14.535 2.507 12.272 0.005 0.006 -0.000 -0.000
1683 4 -0.857 4.857 14.062 0.004 -0.001 -0.003 0.000
1684 4 -1.114 6.619 12.181 -0.004 -0.012 -0.015 0.000
1685 4 0.896 4.801 12.221 -0.002 0.007 0.002 0.000
1686 4 0.566 6.740 14.217 0.003 0.003 -0.004 0.000
1687 4 2.608 4.628 14.306 0.000 0.009 -0.006 0.000
1688 4 2.457 6.601 12.517 0.005 -0.005 0.003 0.000
1689 4 4.626 4.398 12.530 -0.007 0.003 -0.004 0.000
1690 4 4.814 6.929 13.997 -0.000 0.001 0.002 0.000
1691 4 6.795 4.379 14.277 0.003 -0.003 -0.013 0.000
1692 4 7.124 6.439 12.473 -0.010 -0.015 -0.008 0.000
1693 4 8.717 4.678 12.015 -0.002 0.001 0.002 0.000
1694 4 8.961 6.448 14.030 -0.013 -0.000 -0.015 0.000
1695 4 10.229 4.251 14.169 0.001 -0.016 0.006 0.000
1696 4 10.528 6.559 12.191 0.002 0.006 0.010 -0.000
1697 4 11.890 4.632 12.111 -0.004 -0.010 0.005 -0.000
1698 4 11.793 6.034 14.142 0.006 -0.009 -0.004 -0.000
1699 4 13.975 4.534 13.549 -0.001 0.002 0.003 -0.000
1700 4 13.711 6.810 12.085 -0.009 -0.004 -0.014 -0.000
1723 4 -0.786 8.722 14.201 -0.011 0.002 -0.007 0.000
1724 4 -0.970 10.718 12.067 0.001 -0.004 0.001 0.000
1725 4 0.903 8.780 11.731 -0.000 0.003 0.008 -0.000
1726 4 0.837 10.663 14.265 0.010 0.007 0.003 0.000
1727 4 2.428 8.700 13.727 -0.006 -0.013 -0.002 0.000
1728 4 2.860 10.854 12.139 0.000 0.008 -0.011 0.000
1729 4 4.558 8.682 12.128 0.001 0.004 -0.002 0.000
1730 4 4.452 10.274 13.968 -0.000 -0.003 0.002 0.000
1731 4 6.895 8.335 14.262 -0.008 -0.002 -0.007 -0.000
1732 4 6.533 10.327 12.337 0.008 0.005 0.006 0.000
1733 4 8.813 8.390 12.452 -0.006 -0.005 0.005 0.000
1734 4 8.229 10.496 14.039 0.006 0.001 0.009 -0.000
1735 4 10.441 8.591 14.431 -0.001 -0.005 0.009 0.000
1736 4 10.189 10.402 12.398 0.002 -0.004 0.002 -0.000
1737 4 12.075 8.533 12.490 -0.009 -0.001 0.006 -0.000
1738 4 12.166 10.348 14.283 0.000 0.004 0.003 0.000
1739 4 14.315 8.732 14.018 0.001 -0.007 -0.003 -0.000
1740 4 14.234 10.663 12.338 0.006 0.003 0.001 -0.000
1763 4 -1.220 12.332 14.141 -0.004 0.001 -0.001 0.000
1764 4 -1.012 13.751 12.279 0.003 0.005 0.001 -0.000
1765 4 0.856 12.212 12.072 -0.012 -0.009 -0.003 -0.000
1766 4 0.597 13.858 14.075 0.007 0.004 -0.008 -0.000
1767 4 2.774 12.263 14.015 0.005 0.005 -0.002 0.000
1768 4 2.658 14.326 12.273 0.001 0.002 0.008 0.000
1769 4 4.705 12.304 12.540 -0.004 0.009 0.014 0.000
1770 4 4.688 14.404 14.296 -0.007 0.004 0.007 0.000
1771 4 6.691 12.330 13.942 -0.004 0.001 -0.005 0.000
1772 4 6.461 14.332 12.281 -0.008 -0.011 -0.003 0.000
1773 4 8.546 12.778 12.243 0.009 0.007 -0.003 -0.000
1774 4 8.555 14.401 14.228 -0.001 0.002 0.011 -0.000
1775 4 10.355 11.913 14.334 -0.001 -0.001 -0.007 0.000
1776 4 10.469 13.901 12.512 -0.004 0.003 0.011 0.000
1777 4 12.166 12.175 12.497 0.008 -0.009 0.004 0.000
1778 4 12.015 14.111 14.447 0.003 0.000 0.004 0.000
1779 4 14.357 12.677 14.339 -0.004 -0.015 -0.005 -0.000
1780 4 13.582 14.196 12.132 -0.006 -0.015 0.001 0.000
2004 4 -1.439 -1.086 16.113 0.011 -0.018 0.005 0.000
2006 4 0.549 -1.261 17.599 0.001 0.005 0.007 -0.000
2008 4 3.042 -1.709 16.248 0.004 0.004 0.015 -0.000
2010 4 4.357 -1.195 18.231 -0.003 0.007 -0.006 -0.000
2012 4 6.155 -1.051 15.657 -0.003 -0.007 0.013 -0.000
2014 4 8.577 -0.794 18.008 0.000 -0.002 -0.007 -0.000
2016 4 10.234 -1.306 16.057 -0.003 -0.006 -0.005 -0.000
2018 4 12.751 -0.919 18.005 -0.000 -0.004 0.012 0.000
2020 4 14.197 -1.052 15.945 -0.005 -0.001 -0.003 0.000
2043 4 -1.129 1.090 17.951 0.004 -0.006 -0.007 -0.000
2044 4 -0.773 2.983 15.988 -0.003 -0.000 0.001 -0.000
2045 4 0.480 0.740 16.205 0.006 -0.001 0.000 -0.000
2046 4 0.728 2.787 17.965 0.008 0.008 -0.010 -0.000
2047 4 2.523 0.830 17.760 -0.004 0.003 0.006 0.000
2048 4 2.533 2.669 16.105 -0.001 0.003 0.007 0.000
2049 4 4.405 0.529 16.299 0.007 0.004 0.003 0.000
2050 4 4.477 2.633 17.966 -0.002 0.005 -0.007 0.000
2051 4 6.684 0.666 18.177 -0.003 -0.004 0.008 -0.000
2052 4 6.365 2.579 16.084 0.004 0.001 0.007 -0.000
2053 4 8.360 0.750 16.059 0.014 0.006 0.003 -0.000
2054 4 8.081 2.648 17.978 -0.007 -0.004 -0.005 -0.000
2055 4 10.585 0.689 17.778 -0.003 0.009 -0.002 0.000
2056 4 10.523 2.631 16.032 0.002 -0.005 0.007 0.000
2057 4 12.298 0.453 15.941 -0.002 0.001 -0.000 0.000
2058 4 12.094 3.047 17.836 0.012 0.010 -0.008 0.000
2059 4 14.040 1.169 17.711 0.005 0.006 0.000 0.000
2060 4 14.088 2.913 15.961 -0.008 0.008 -0.001 0.000
2083 4 -0.958 4.674 18.045 -0.005 0.004 -0.000 -0.000
2084 4 -0.753 6.761 16.468 0.003 0.003 -0.005 -0.000
2085 4 1.022 4.716 16.307 0.000 -0.000 0.003 -0.000
2086 4 0.976 7.000 18.239 0.004 0.001 -0.006 -0.000
2087 4 2.887 5.112 17.886 0.006 -0.007 0.000 -0.000
2088 4 2.622 6.891 15.683 -0.010 0.000 -0.010 -0.000
2089 4 4.583 4.780 16.012 -0.004 0.006 -0.002 -0.000
2090 4 4.457 6.791 17.660 -0.009 0.012 -0.003 -0.000
2091 4 6.129 4.879 17.669 -0.007 -0.003 -0.007 -0.000
2092 4 6.514 6.579 15.536 0.001 0.002 -0.009 -0.000
2093 4 8.081 4.355 16.194 -0.002 -0.005 -0.003 -0.000
2094 4 8.407 6.405 17.720 0.005 0.001 0.004 0.000
2095 4 10.315 4.974 17.835 -0.003 -0.002 0.009 0.000
2096 4 10.900 6.705 16.195 -0.004 0.003 0.005 0.000
2097 4 12.330 4.607 15.814 -0.001 -0.009 0.005 0.000
2098 4 11.941 6.787 18.326 0.010 0.000 -0.002 0.000
2099 4 13.826 4.902 17.618 -0.008 0.005 0.001 0.000
2100 4 14.480 6.366 15.975 0.004 -0.006 0.008 -0.000
2123 4 -1.120 8.599 18.504 0.002 0.003 0.002 -0.000
2124 4 -1.374 10.544 15.642 0.009 0.004 0.005 0.000
2125 4 0.455 8.802 16.346 -0.008 -0.001 0.005 -0.000
2126 4 0.698 10.302 18.341 0.001 -0.002 -0.006 -0.000
2127 4 2.821 8.649 18.157 0.002 0.004 -0.002 -0.000
2128 4 2.697 10.581 15.987 0.004 -0.002 -0.003 0.000
2129 4 4.461 9.053 15.789 -0.001 0.001 0.008 -0.000
2130 4 4.047 10.875 17.776 0.006 0.003 0.004 0.000
2131 4 6.155 8.560 17.773 0.001 -0.001 -0.002 -0.000
2132 4 6.365 10.407 16.080 -0.005 -0.003 0.004 -0.000
2133 4 8.019 8.455 16.421 -0.002 0.003 -0.003 -0.000
2134 4 8.238 10.414 17.977 -0.000 0.004 -0.002 -0.000
2135 4 9.998 8.306 18.074 -0.007 -0.003 -0.000 0.000
2136 4 10.120 10.166 16.203 0.011 -0.000 0.012 0.000
2137 4 12.768 8.372 16.109 -0.003 0.001 -0.006 0.000
2138 4 11.533 10.297 18.077 0.004 -0.011 0.008 0.000
2139 4 14.263 7.933 18.049 0.003 0.005 -0.005 0.000
2140 4 13.915 10.546 16.376 -0.003 0.000 0.009 0.000
2163 4 -1.148 12.559 17.975 -0.015 0.004 -0.002 0.000
2164 4 -1.027 14.400 16.125 0.001 -0.003 0.011 -0.000
2165 4 0.675 12.325 16.038 -0.001 0.007 0.008 0.000
2166 4 0.883 14.214 18.204 0.004 -0.001 0.007 -0.000
2167 4 2.312 12.500 17.990 0.006 0.007 0.005 0.000
2168 4 2.545 14.195 16.089 0.010 0.005 0.006 -0.000
2169 4 4.760 12.346 15.609 0.002 0.006 0.009 0.000
2170 4 4.595 14.291 17.967 -0.003 0.007 -0.005 0.000
2171 4 6.219 12.360 17.748 -0.002 0.002 0.003 0.000
2172 4 6.942 14.376 16.350 -0.009 -0.000 -0.012 -0.000
2173 4 8.216 11.994 15.933 -0.000 0.008 -0.002 -0.000
2174 4 8.107 14.379 18.269 -0.000 0.001 0.002 -0.000
2175 4 9.933 12.160 18.194 0.007 -0.012 -0.001 0.000
2176 4 9.860 13.867 15.978 -0.001 0.000 0.004 -0.000
2177 4 11.804 12.238 16.199 0.004 -0.004 -0.012 0.000
2178 4 12.380 14.323 18.091 0.009 0.006 -0.007 0.000
2179 4 14.211 12.157 17.630 -0.003 0.008 0.004 0.000
2180 4 14.024 14.298 15.958 -0.000 0.004 -0.008 0.000
2404 4 -1.260 -1.044 19.985 -0.002 0.004 -0.002 -0.000
2408 4 2.169 -1.167 19.822 -0.007 -0.003 -0.001 -0.000
2412 4 6.490 -1.380 20.085 0.004 -0.004 0.003 -0.000
2416 4 10.372 -0.719 19.777 -0.000 0.014 -0.001 0.000
2420 4 14.335 -0.571 19.878 -0.012 0.001 0.002 -0.000
2444 4 -1.073 2.641 19.753 -0.003 -0.007 0.002 -0.000
2445 4 0.633 1.158 19.682 -0.004 -0.009 0.003 -0.000
2448 4 2.522 2.879 19.849 0.008 -0.009 0.003 0.000
2449 4 4.744 0.904 20.167 -0.002 -0.004 0.008 0.000
2452 4 6.377 2.668 19.917 0.004 -0.001 -0.003 0.000
2453 4 8.257 0.699 20.185 0.002 -0.005 -0.005 -0.000
2456 4 9.871 2.689 19.499 0.003 0.003 -0.005 -0.000
2457 4 12.389 1.112 19.768 0.003 0.003 0.002 0.000
2460 4 14.055 3.041 19.918 0.017 -0.002 -0.001 0.000
2484 4 -1.470 6.774 19.789 -0.002 -0.003 0.001 0.000
2485 4 0.900 4.978 19.985 0.001 -0.008 0.002 0.000
2488 4 2.729 6.859 19.937 -0.004 -0.002 0.006 0.000
2489 4 4.242 5.119 19.993 0.006 0.003 0.001 0.000
2492 4 6.498 6.827 19.621 0.000 -0.002 -0.002 -0.000
2493 4 8.021 4.706 19.352 -0.007 0.004 -0.006 -0.000
2496 4 10.050 6.287 19.708 0.003 -0.007 -0.005 0.000
2497 4 12.293 4.876 20.025 0.001 0.011 0.002 0.000
2500 4 14.367 6.325 20.016 0.003 -0.000 0.011 0.000
2524 4 -1.112 10.963 20.248 -0.004 -0.001 -0.004 -0.000
2525 4 0.649 8.605 20.366 -0.003 0.000 0.005 -0.000
2528 4 2.694 10.629 20.226 0.008 -0.003 0.004 0.000
2529 4 4.511 8.510 20.316 -0.011 -0.003 0.013 0.000
2532 4 6.184 10.474 19.574 0.005 -0.004 -0.002 0.000
2533 4 8.408 8.592 19.939 -0.004 0.008 -0.004 0.000
2536 4 10.189 10.395 20.324 0.010 -0.002 0.002 -0.000
2537 4 12.249 8.556 19.941 -0.006 0.002 -0.003 0.000
2540 4 13.952 10.427 19.371 -0.004 0.005 0.002 0.000
2564 4 -1.220 13.681 20.299 -0.005 -0.004 -0.004 0.000
2565 4 0.914 12.358 19.907 0.005 -0.007 0.003 0.000
2568 4 2.949 14.442 19.877 -0.002 0.005 -0.002 0.000
2569 4 4.652 12.748 19.912 0.008 -0.004 -0.007 0.000
2572 4 6.602 14.211 20.054 -0.001 -0.002 0.003 0.000
2573 4 8.130 12.299 19.896 0.002 0.007 -0.002 0.000
2576 4 10.041 14.100 19.711 -0.002 -0.010 -0.008 -0.000
2577 4 12.181 12.216 19.949 -0.001 0.005 -0.003 -0.000
2580 4 14.126 14.154 19.950 -0.001 0.001 0.006 0.000
2575 4 10.260 12.135 21.913 -0.009 -0.001 -0.003 -0.000
2579 4 13.499 12.163 21.962 -0.008 0.001 -0.005 -0.000
2451 4 6.139 0.690 21.980 -0.004 0.000 -0.001 -0.000
2450 4 4.189 2.793 21.677 0.006 -0.002 -0.002 0.000
2574 4 8.738 13.924 21.824 0.011 -0.014 -0.009 0.000
2530 4 4.602 10.723 22.162 -0.008 -0.010 -0.001 0.000
2571 4 6.481 12.278 22.144 0.001 -0.010 -0.009 0.000
2486 4 0.651 6.672 22.094 -0.008 0.001 -0.003 0.000
2490 4 5.085 6.600 21.925 0.008 -0.003 0.000 0.000
2523 4 -1.252 8.533 21.814 0.004 0.002 0.003 -0.000
2566 4 0.607 14.071 21.921 -0.001 -0.003 -0.006 -0.000
2491 4 6.417 4.644 21.529 0.004 0.002 0.002 0.000
2454 4 8.566 3.063 21.640 -0.007 -0.004 -0.006 -0.000
2499 4 14.076 4.964 21.622 -0.004 0.012 0.003 -0.000
2410 4 4.396 -1.145 21.951 0.001 0.003 0.004 -0.000
2446 4 0.548 3.043 21.777 -0.004 0.003 0.003 -0.000
2483 4 -1.673 4.657 21.431 0.002 -0.005 0.006 0.000
2527 4 2.483 8.440 21.908 -0.007 0.003 -0.001 0.000
2570 4 4.780 14.357 22.105 -0.004 0.007 0.004 -0.000
2534 4 8.263 10.491 21.939 0.004 -0.003 0.006 -0.000
2531 4 6.872 8.297 21.572 -0.007 0.006 -0.005 0.000
2447 4 2.066 1.303 21.847 0.002 0.009 0.003 -0.000
2414 4 8.458 -1.010 22.136 0.009 0.008 0.005 0.000
2418 4 12.352 -0.841 21.702 -0.001 -0.004 0.006 0.000
2495 4 10.163 4.509 21.311 0.010 -0.011 -0.008 -0.000
2487 4 2.529 5.059 21.972 0.006 -0.011 0.013 0.000
2578 4 12.403 14.575 21.994 0.001 0.002 -0.002 0.000
2459 4 13.780 1.047 21.743 0.007 -0.001 -0.006 0.000
2455 4 10.565 1.329 21.738 -0.002 0.005 0.008 0.000
2526 4 0.741 10.488 21.916 0.011 0.004 -0.001 -0.000
2535 4 10.092 8.754 21.857 0.003 0.003 0.001 -0.000
2498 4 12.089 6.691 21.839 -0.005 -0.004 0.000 0.000
2494 4 8.374 6.304 21.694 -0.000 -0.001 -0.006 0.000
2406 4 0.628 -0.652 21.736 0.017 -0.001 -0.003 -0.000
2567 4 2.494 12.156 22.294 0.009 -0.003 0.001 0.000
2458 4 12.319 2.979 21.743 0.013 0.005 -0.000 0.000
2538 4 11.982 10.500 22.238 0.006 -0.000 -0.009 -0.000
2539 4 14.211 8.795 21.625 0.002 0.008 -0.005 -0.000
2443 4 -1.384 1.162 21.876 -0.003 -0.005 -0.002 -0.000
2563 4 -1.235 12.253 22.381 -0.006 0.005 0.005 -0.000
2411 4 6.389 -2.900 22.170 -0.008 -0.001 0.001 -0.000
1803 4 -1.126 15.906 14.091 0.002 0.008 0.003 -0.000
1209 4 4.149 -2.847 8.825 0.009 0.000 -0.002 -0.000
1207 4 2.337 -2.987 10.424 0.001 -0.007 0.002 0.000
2413 4 8.631 -2.652 20.392 -0.001 -0.001 0.007 0.000
941 4 16.066 8.434 4.348 -0.002 0.005 0.008 -0.000
902 4 16.008 6.688 6.446 -0.005 -0.003 -0.002 -0.000
1805 4 0.648 15.634 12.165 0.000 -0.007 0.003 -0.000
805 4 0.782 -3.022 4.173 0.003 0.001 0.000 -0.000
1611 4 6.475 -2.924 13.705 -0.005 0.003 -0.004 0.000
982 4 16.008 14.296 6.630 0.004 -0.004 0.002 -0.000
582 4 15.856 13.864 2.238 -0.009 0.002 -0.013 -0.000
1403 4 -1.100 15.806 10.196 0.007 0.007 -0.003 0.000
2407 4 2.265 -2.658 21.685 -0.001 -0.005 0.008 -0.000
981 4 15.875 12.407 4.331 -0.007 0.002 -0.004 0.000
1407 4 2.504 15.739 10.251 -0.002 -0.002 -0.001 0.000
1405 4 0.942 16.077 8.289 -0.007 -0.001 -0.003 0.000
619 4 13.890 15.886 2.483 -0.007 -0.002 0.007 -0.000
2019 4 14.245 -2.978 18.037 -0.001 0.002 0.013 -0.000
1009 4 5.103 15.872 4.601 -0.004 0.009 -0.005 -0.000
2419 4 14.677 -2.910 21.499 0.006 -0.009 0.012 -0.000
413 4 8.191 -2.858 1.251 -0.000 -0.002 0.000 0.000
2402 4 -2.849 -0.946 21.954 0.001 0.002 0.007 0.000
19 4 14.097 -2.875 -0.790 0.003 -0.006 0.000 -0.000
815 4 10.174 -2.021 7.040 0.007 0.001 -0.007 -0.000
2015 4 10.543 -2.768 18.156 0.000 0.003 -0.001 -0.000
44 4 -0.867 2.588 -2.721 -0.003 -0.002 0.008 0.000
2209 4 4.735 15.966 15.770 -0.007 -0.002 0.003 0.000
603 4 -1.255 16.016 2.622 0.005 0.000 -0.005 0.000
1007 4 2.976 15.827 6.242 0.001 0.007 -0.007 -0.000
1005 4 0.707 15.707 4.435 -0.003 0.009 -0.002 0.000
1605 4 0.565 -2.925 12.093 -0.001 0.001 0.008 0.000
57 4 12.360 0.791 -2.770 0.002 0.006 -0.004 -0.000
20 4 14.037 -1.156 -2.949 -0.002 0.004 -0.001 -0.000
542 4 15.798 10.804 2.494 -0.001 -0.005 0.003 0.000
1807 4 2.355 15.969 13.947 -0.003 -0.004 -0.005 -0.000
1262 4 16.057 2.716 10.247 0.003 -0.016 0.002 0.000
102 4 16.012 6.846 -1.135 0.008 0.004 0.002 -0.000
1011 4 6.408 15.976 6.640 0.010 0.012 -0.012 -0.000
219 4 14.177 15.713 -1.483 -0.005 0.007 -0.002 0.000
2011 4 6.238 -2.817 17.843 0.011 -0.003 0.003 -0.000
1213 4 8.320 -2.654 8.743 0.007 -0.008 -0.001 -0.000
803 4 -0.872 -2.891 6.354 0.005 0.002 0.003 0.000
407 4 2.620 -3.006 2.952 -0.004 -0.004 -0.000 -0.000
1615 4 10.057 -2.841 13.809 -0.010 -0.000 0.002 0.000
811 4 6.341 -2.717 6.823 0.000 -0.008 -0.006 -0.000