ITEM: TIMESTEP
24000
ITEM: NUMBER OF ATOMS
32000
ITEM: BOX BOUNDS pp pp pp
-3.153288 73.633288
-2.863680 73.343680
-3.074845 73.554845
ITEM: ATOMS id type x y z vx vy vz q
6 4 0.873 -0.963 -1.332 0.009 0.004 0.004 -0.000
10 4 4.511 -0.852 -0.828 0.003 0.001 0.000 -0.000
14 4 8.202 -0.938 -1.280 -0.005 -0.001 0.006 -0.000
18 4 12.546 -1.019 -1.065 -0.014 -0.019 -0.002 0.000
43 4 -0.846 0.850 -1.244 -0.005 0.000 -0.005 -0.000
46 4 0.701 3.008 -1.094 -0.007 0.004 0.004 0.000
47 4 2.583 0.975 -1.161 0.002 -0.001 -0.005 -0.000
50 4 4.315 2.660 -0.644 -0.004 -0.005 -0.002 -0.000
51 4 6.494 0.949 -1.124 0.006 -0.002 -0.001 -0.000
54 4 8.490 3.188 -1.153 -0.004 0.007 -0.001 0.000
55 4 10.315 0.940 -0.779 -0.010 -0.008 -0.001 0.000
58 4 11.996 3.154 -0.801 0.009 -0.001 -0.002 0.000
59 4 14.439 1.303 -0.623 0.002 0.000 0.001 -0.000
83 4 -0.940 4.617 -1.082 -0.015 0.005 0.005 0.000
86 4 0.599 6.729 -1.589 -0.007 0.008 -0.004 -0.000
87 4 2.767 4.850 -1.129 0.001 0.003 -0.005 -0.000
90 4 4.690 6.362 -1.333 -0.005 -0.007 0.000 -0.000
91 4 6.546 4.781 -0.847 0.004 -0.001 0.004 -0.000
94 4 8.348 6.778 -0.798 -0.001 -0.002 -0.012 -0.000
95 4 10.302 5.068 -0.965 0.004 0.007 -0.008 0.000
98 4 12.257 6.911 -1.031 -0.004 -0.001 -0.003 0.000
99 4 14.452 5.538 -0.954 0.003 0.011 0.002 0.000
123 4 -1.268 9.252 -1.024 -0.008 -0.003 0.009 -0.000
126 4 0.831 10.702 -1.406 0.011 -0.007 0.002 -0.000
127 4 2.762 8.391 -1.513 0.014 0.007 0.004 -0.000
130 4 4.745 10.429 -1.367 0.004 -0.003 -0.001 0.000
131 4 6.608 8.765 -1.140 0.000 -0.003 0.007 -0.000
134 4 8.279 10.415 -1.240 0.009 0.004 0.008 0.000
135 4 10.173 9.053 -1.380 -0.006 0.004 0.004 0.000
138 4 12.411 10.685 -1.341 -0.014 -0.005 -0.000 0.000
139 4 14.248 8.736 -1.032 0.002 -0.002 0.002 0.000
163 4 -0.936 12.548 -1.774 0.013 -0.006 0.006 -0.000
166 4 1.274 14.426 -1.142 -0.007 -0.003 -0.006 -0.000
167 4 2.897 12.605 -1.391 0.000 -0.002 -0.004 0.000
170 4 4.664 14.279 -1.278 0.003 0.006 0.003 -0.000
171 4 6.632 12.081 -0.983 -0.005 -0.003 -0.006 0.000
174 4 8.131 14.148 -1.109 -0.007 0.002 0.002 -0.000
175 4 10.401 12.386 -1.054 -0.003 -0.001 0.011 0.000
178 4 12.027 14.135 -1.020 -0.005 0.006 0.008 0.000
179 4 14.067 12.561 -1.067 0.007 0.007 -0.003 -0.000
404 4 -1.025 -0.531 0.883 -0.008 0.014 0.012 -0.000
406 4 0.578 -1.166 2.625 -0.002 -0.009 -0.005 -0.000
408 4 2.680 -1.072 0.880 0.005 0.006 0.002 0.000
410 4 4.295 -1.411 2.996 -0.007 -0.002 -0.001 0.000
412 4 6.320 -1.276 0.896 0.001 0.000 0.002 -0.000
414 4 8.881 -1.491 2.546 -0.003 0.012 -0.005 0.000
416 4 10.250 -1.161 0.439 0.007 -0.001 0.001 0.000
418 4 12.748 -1.158 3.001 -0.003 0.005 0.021 0.000
420 4 14.450 -0.871 0.551 -0.006 0.009 -0.002 0.000
443 4 -1.053 1.012 2.945 0.005 -0.004 -0.002 -0.000
444 4 -1.359 2.777 0.876 -0.004 -0.011 -0.002 -0.000
445 4 0.943 0.939 0.610 -0.003 -0.010 0.004 -0.000
446 4 0.494 2.991 2.703 -0.002 0.002 0.005 -0.000
447 4 2.980 0.719 2.808 0.005 0.001 0.003 0.000
448 4 2.346 3.204 1.122 -0.006 -0.007 -0.011 0.000
449 4 4.750 1.005 0.955 -0.009 -0.007 0.009 0.000
450 4 4.679 2.619 2.729 0.002 0.001 0.002 0.000
451 4 6.565 0.867 2.526 0.004 0.004 -0.000 0.000
452 4 6.761 2.451 0.773 -0.001 -0.000 -0.010 0.000
453 4 8.375 0.322 0.762 -0.005 -0.014 0.004 -0.000
454 4 8.554 2.719 2.675 -0.001 -0.003 0.001 0.000
455 4 10.607 0.459 2.245 0.004 0.001 -0.009 0.000
456 4 9.983 2.679 0.996 0.001 0.001 -0.009 0.000
457 4 12.371 1.124 0.776 -0.005 0.001 -0.005 0.000
458 4 12.518 3.039 2.804 -0.005 0.001 -0.010 -0.000
459 4 14.286 1.414 2.769 -0.010 -0.002 0.004 -0.000
460 4 14.327 3.380 0.580 0.010 0.000 -0.010 -0.000
483 4 -1.202 5.216 2.139 0.002 0.012 -0.005 0.000
484 4 -1.050 6.951 0.436 0.004 0.006 -0.001 0.000
485 4 1.066 5.155 0.465 0.003 0.010 -0.014 0.000
486 4 0.350 7.083 2.536 -0.009 0.006 0.001 0.000
487 4 2.968 4.974 2.823 0.004 -0.005 -0.000 -0.000
488 4 2.648 6.914 1.020 -0.002 0.004 0.007 -0.000
489 4 4.770 4.621 1.101 0.006 0.001 0.003 -0.000
490 4 4.700 6.592 2.555 -0.008 -0.002 0.001 -0.000
491 4 6.591 4.843 2.921 -0.008 0.008 -0.002 -0.000
492 4 6.797 6.875 0.885 0.005 -0.004 -0.008 -0.000
493 4 8.166 4.852 0.969 0.002 -0.006 0.001 -0.000
494 4 8.617 6.554 2.532 0.016 -0.009 0.006 -0.000
495 4 10.328 4.617 2.818 0.002 -0.002 0.012 0.000
496 4 10.242 6.820 0.726 -0.000 -0.003 -0.001 0.000
497 4 12.213 4.802 0.927 0.009 -0.010 0.003 0.000
498 4 12.155 6.747 2.592 -0.002 -0.000 0.000 0.000
499 4 14.189 5.361 3.005 -0.018 0.007 -0.006 -0.000
500 4 14.222 7.208 0.839 0.002 -0.004 -0.006 0.000
523 4 -0.871 8.814 2.257 0.000 -0.002 0.005 0.000
524 4 -1.068 11.069 0.502 -0.003 0.003 0.001 -0.000
525 4 0.606 9.153 0.590 -0.009 0.003 -0.005 0.000
526 4 0.748 10.986 3.078 -0.002 -0.009 0.006 0.000
527 4 2.443 8.937 2.555 0.006 0.005 0.003 0.000
528 4 2.779 10.371 0.293 -0.015 0.001 -0.012 -0.000
529 4 4.661 8.903 1.039 -0.003 -0.012 -0.006 -0.000
530 4 4.286 10.680 2.925 -0.007 -0.000 0.009 0.000
531 4 7.036 8.981 2.698 -0.004 -0.001 0.006 -0.000
532 4 6.348 10.591 0.688 0.002 0.002 -0.005 0.000
533 4 8.560 8.521 0.859 0.002 -0.008 -0.004 -0.000
534 4 8.583 10.806 2.569 0.002 0.002 -0.005 -0.000
535 4 10.264 8.514 3.055 0.008 -0.003 -0.007 -0.000
536 4 10.153 10.579 0.926 0.001 0.009 0.007 -0.000
537 4 11.908 8.750 0.606 -0.006 0.003 -0.001 0.000
538 4 12.137 10.635 2.601 0.014 0.010 0.004 -0.000
539 4 13.515 8.814 2.866 0.005 -0.004 0.009 0.000
540 4 14.186 10.687 1.074 0.002 0.008 -0.003 -0.000
563 4 -1.382 12.569 2.488 0.007 0.003 0.005 0.000
564 4 -0.929 14.001 0.295 -0.003 -0.002 -0.004 -0.000
565 4 0.952 12.509 0.421 -0.007 0.007 -0.002 -0.000
566 4 0.872 14.168 2.665 0.005 0.001 -0.000 -0.000
567 4 2.684 12.440 2.648 0.006 0.002 0.001 -0.000
568 4 2.887 14.539 0.642 -0.010 -0.001 -0.004 -0.000
569 4 4.370 12.345 0.566 -0.008 0.008 -0.008 0.000
570 4 4.438 13.944 2.472 0.005 0.004 0.000 0.000
571 4 6.433 12.075 2.842 -0.021 -0.006 -0.011 -0.000
572 4 6.149 13.866 0.632 0.011 -0.007 0.010 0.000
573 4 8.283 12.605 0.796 -0.003 0.000 0.006 0.000
574 4 8.298 14.036 2.758 -0.003 0.004 -0.005 -0.000
575 4 10.447 12.567 2.744 -0.001 -0.002 -0.009 -0.000
576 4 10.376 14.334 1.139 0.006 0.002 0.003 0.000
577 4 12.438 12.263 0.714 0.003 0.002 0.004 -0.000
578 4 12.171 14.485 2.521 0.007 -0.014 0.005 -0.000
579 4 13.905 12.357 2.734 0.007 0.008 -0.001 -0.000
580 4 14.030 14.164 0.863 -0.002 0.001 0.009 -0.000
804 4 -1.213 -0.864 4.294 -0.008 -0.002 -0.002 -0.000
806 4 0.139 -1.273 6.647 0.003 -0.000 -0.004 0.000
808 4 2.424 -1.438 4.976 -0.002 0.003 0.001 0.000
810 4 4.517 -0.698 6.564 -0.007 0.005 -0.005 -0.000
812 4 6.767 -0.986 4.334 0.002 -0.020 0.006 0.000
814 4 8.695 -0.741 6.226 0.002 0.001 -0.003 0.000
816 4 10.663 -1.100 4.486 0.001 0.002 -0.002 0.000
818 4 12.502 -1.284 6.822 0.006 0.009 0.000 -0.000
820 4 14.557 -0.627 4.657 0.002 0.004 0.007 0.000
843 4 -1.091 1.083 6.238 -0.003 -0.002 0.003 0.000
844 4 -1.147 3.004 4.910 0.000 -0.007 -0.007 -0.000
845 4 0.791 0.620 4.717 0.003 0.009 -0.002 0.000
846 4 0.846 2.665 6.594 0.003 0.002 -0.002 -0.000
847 4 2.271 0.641 6.769 0.003 -0.002 0.012 -0.000
848 4 2.202 2.801 4.363 0.010 0.010 0.013 -0.000
849 4 4.974 0.770 4.373 0.001 0.003 -0.003 0.000
850 4 4.290 2.306 5.962 0.007 0.001 -0.009 -0.000
851 4 6.327 0.633 6.514 0.003 -0.005 0.003 0.000
852 4 6.592 2.877 5.051 -0.003 0.010 0.010 0.000
853 4 8.470 0.661 4.262 -0.005 -0.007 -0.005 0.000
854 4 8.426 2.303 6.470 0.005 -0.005 0.001 0.000
855 4 10.327 0.891 6.407 0.001 0.002 -0.003 0.000
856 4 10.672 2.757 4.533 -0.006 -0.009 -0.003 0.000
857 4 12.604 1.050 4.510 -0.009 0.011 -0.007 -0.000
858 4 12.163 2.704 6.660 -0.007 0.008 0.007 0.000
859 4 14.006 0.771 6.946 -0.001 -0.010 0.006 -0.000
860 4 14.254 2.879 4.656 -0.002 0.002 -0.004 -0.000
883 4 -1.012 5.158 6.463 0.000 -0.002 -0.006 0.000
884 4 -1.125 6.758 4.628 0.003 0.002 0.008 0.000
885 4 0.603 4.760 4.594 0.006 0.005 -0.005 0.000
886 4 0.631 7.017 6.810 0.000 0.012 0.002 0.000
887 4 2.455 4.911 6.703 0.010 -0.000 -0.004 -0.000
888 4 2.457 6.703 4.674 0.002 0.001 0.002 0.000
889 4 4.450 4.802 4.798 0.005 -0.006 -0.005 -0.000
890 4 4.434 6.934 6.499 -0.002 -0.002 0.006 -0.000
891 4 6.401 4.984 6.704 0.011 0.002 0.005 -0.000
892 4 6.289 6.948 4.852 0.004 0.001 0.011 -0.000
893 4 8.373 4.339 4.600 0.008 -0.003 0.003 0.000
894 4 8.276 6.426 6.364 -0.000 -0.002 0.005 -0.000
895 4 10.096 4.786 6.517 -0.011 0.003 -0.000 0.000
896 4 10.266 6.546 4.618 -0.006 0.001 0.005 0.000
897 4 12.023 4.947 4.983 0.009 -0.001 -0.008 0.000
898 4 12.163 6.308 7.216 0.007 0.001 -0.010 0.000
899 4 14.442 4.411 6.511 0.005 0.002 -0.006 -0.000
900 4 14.564 6.491 4.922 -0.004 0.014 0.003 0.000
923 4 -1.232 8.659 6.475 0.006 0.004 0.008 0.000
924 4 -0.838 10.546 4.373 0.002 0.006 -0.003 0.000
925 4 0.596 8.865 4.856 -0.004 0.003 0.005 0.000
926 4 0.417 10.737 6.505 -0.005 -0.005 0.002 -0.000
927 4 2.533 8.736 6.931 0.009 -0.008 -0.007 0.000
928 4 2.311 10.517 5.172 0.003 -0.004 0.003 0.000
929 4 4.037 8.900 4.572 -0.004 0.001 0.004 0.000
930 4 4.496 10.392 6.943 0.005 0.006 0.006 0.000
931 4 6.452 8.683 6.520 0.005 -0.002 0.004 0.000
932 4 6.085 10.284 4.564 -0.008 0.002 0.004 0.000
933 4 8.302 8.732 4.954 0.000 -0.002 0.004 -0.000
934 4 8.317 10.532 6.742 0.006 -0.006 0.015 0.000
935 4 10.460 8.773 6.547 0.000 0.010 0.006 0.000
936 4 10.421 10.799 4.784 -0.001 -0.000 0.013 -0.000
937 4 12.282 7.832 4.984 -0.001 0.005 -0.001 0.000
938 4 12.467 10.358 7.052 0.001 -0.003 0.001 0.000
939 4 14.328 8.608 6.369 0.007 -0.000 0.007 0.000
940 4 13.645 10.342 4.615 -0.006 -0.005 0.001 -0.000
963 4 -1.423 13.161 6.972 -0.003 0.005 0.000 -0.000
964 4 -0.895 14.279 4.746 -0.005 0.005 0.002 0.000
965 4 0.667 12.884 4.965 -0.007 -0.001 0.004 -0.000
966 4 0.859 14.490 6.962 0.005 -0.004 0.004 -0.000
967 4 2.574 12.504 6.843 -0.002 -0.008 0.001 -0.000
968 4 2.964 14.297 4.415 -0.001 -0.001 0.015 -0.000
969 4 4.283 12.176 4.992 -0.003 0.007 -0.006 -0.000
970 4 4.300 14.425 6.478 0.000 0.001 -0.011 -0.000
971 4 6.393 12.291 6.579 0.004 0.009 0.000 0.000
972 4 6.095 13.916 4.750 0.003 0.002 -0.003 -0.000
973 4 8.114 12.141 4.515 0.002 0.004 -0.007 -0.000
974 4 7.818 14.249 6.443 0.005 -0.002 0.001 0.000
975 4 10.330 12.338 6.755 0.005 0.002 -0.002 0.000
976 4 9.933 14.072 4.928 -0.003 -0.008 -0.007 0.000
977 4 12.177 12.584 4.590 0.005 0.003 0.011 -0.000
978 4 11.827 14.563 6.782 0.019 0.004 -0.015 0.000
979 4 13.903 12.181 6.414 0.011 -0.002 0.008 -0.000
980 4 13.678 14.242 4.256 0.003 0.004 -0.000 -0.000
1204 4 -1.146 -1.232 8.526 -0.002 0.007 0.006 0.000
1206 4 0.818 -1.160 10.672 -0.008 -0.005 0.001 0.000
1208 4 2.022 -1.090 8.342 0.001 -0.003 0.002 -0.000
1210 4 4.867 -0.863 10.229 -0.008 0.004 0.002 -0.000
1212 4 6.636 -0.907 8.418 -0.010 0.008 -0.006 0.000
1214 4 8.227 -0.667 10.067 0.011 0.003 -0.007 0.000
1216 4 10.062 -0.909 8.257 0.006 -0.001 0.006 0.000
1218 4 12.199 -1.191 10.585 -0.012 0.008 0.003 0.000
1220 4 14.464 -0.648 8.953 -0.010 -0.009 0.007 -0.000
1243 4 -1.470 0.679 10.157 0.000 0.006 -0.001 0.000
1244 4 -0.879 2.928 8.367 -0.000 -0.002 -0.008 0.000
1245 4 0.576 1.068 8.519 0.001 0.002 -0.006 0.000
1246 4 1.181 2.960 10.480 0.000 -0.007 -0.005 0.000
1247 4 2.977 0.398 10.136 -0.006 -0.004 0.010 -0.000
1248 4 2.606 2.930 8.392 0.007 -0.004 0.002 -0.000
1249 4 4.471 1.110 8.362 -0.003 0.003 0.010 -0.000
1250 4 4.314 3.248 10.569 0.001 -0.016 0.007 0.000
1251 4 6.110 1.100 10.288 0.005 -0.005 -0.010 0.000
1252 4 6.456 3.022 8.325 -0.003 -0.003 -0.000 0.000
1253 4 8.081 1.037 8.528 -0.005 0.002 0.001 0.000
1254 4 8.368 2.730 10.638 -0.001 0.002 -0.000 0.000
1255 4 10.526 0.846 10.604 0.008 0.006 -0.003 0.000
1256 4 10.227 2.628 8.585 0.007 0.001 0.007 0.000
1257 4 12.310 0.890 8.932 -0.005 0.005 0.002 0.000
1258 4 12.211 2.797 10.857 -0.002 0.004 -0.000 -0.000
1259 4 14.133 1.077 10.335 -0.009 -0.002 -0.010 -0.000
1260 4 14.678 3.311 8.685 -0.002 0.001 0.004 -0.000
1283 4 -0.989 4.982 10.828 0.004 0.004 0.000 0.000
1284 4 -1.220 6.848 8.743 -0.003 -0.002 0.002 -0.000
1285 4 0.377 4.725 8.241 0.001 0.003 0.002 0.000
1286 4 0.505 6.852 10.205 -0.001 0.008 0.000 0.000
1287 4 2.565 4.843 10.217 -0.003 0.013 -0.000 0.000
1288 4 2.416 6.922 8.439 0.012 -0.001 -0.003 -0.000
1289 4 4.387 4.833 8.091 0.006 0.005 -0.001 -0.000
1290 4 4.464 6.652 10.281 -0.006 -0.011 -0.003 0.000
1291 4 6.224 4.881 10.357 -0.006 -0.004 0.005 0.000
1292 4 5.956 7.040 8.307 -0.005 0.001 -0.003 0.000
1293 4 8.373 4.320 8.541 0.002 -0.008 -0.007 0.000
1294 4 8.381 6.836 10.408 -0.004 0.009 0.004 -0.000
1295 4 9.995 4.908 10.436 0.001 -0.003 -0.000 0.000
1296 4 10.085 6.365 8.681 0.002 0.013 -0.013 0.000
1297 4 12.405 4.752 8.812 -0.001 -0.003 -0.002 0.000
1298 4 12.074 6.660 10.455 -0.004 0.003 0.002 -0.000
1299 4 14.130 5.089 10.505 -0.007 -0.000 0.009 -0.000
1300 4 14.075 6.733 8.678 -0.001 -0.002 -0.004 -0.000
1323 4 -1.159 8.847 10.551 -0.004 0.001 0.004 0.000
1324 4 -1.328 10.685 8.290 -0.007 0.007 0.001 -0.000
1325 4 0.523 8.864 8.653 0.006 -0.009 -0.001 -0.000
1326 4 0.770 10.678 10.588 -0.004 -0.004 0.010 -0.000
1327 4 2.369 8.693 10.252 -0.006 0.006 0.002 -0.000
1328 4 2.233 10.470 8.655 0.002 -0.002 0.001 -0.000
1329 4 4.320 8.577 8.778 0.003 0.014 -0.004 0.000
1330 4 4.722 10.466 10.211 -0.003 -0.004 0.007 -0.000
1331 4 6.633 8.583 10.331 -0.001 -0.004 -0.009 -0.000
1332 4 6.640 10.357 8.491 0.006 -0.003 0.002 0.000
1333 4 8.694 8.855 8.609 -0.001 -0.002 0.002 -0.000
1334 4 7.875 10.814 10.440 0.002 0.001 0.004 -0.000
1335 4 10.199 8.553 10.488 -0.006 0.011 0.003 -0.000
1336 4 10.070 10.658 8.678 0.003 0.004 -0.008 0.000
1337 4 12.556 8.653 8.278 -0.002 -0.004 0.004 0.000
1338 4 12.191 10.297 10.499 0.012 -0.004 -0.003 -0.000
1339 4 13.970 8.451 10.411 0.007 0.001 0.002 -0.000
1340 4 14.056 10.507 8.948 0.005 -0.011 0.000 -0.000
1363 4 -1.281 12.479 10.265 0.010 -0.001 -0.004 0.000
1364 4 -1.008 14.673 8.702 -0.004 0.001 0.010 0.000
1365 4 0.660 12.578 8.688 -0.008 -0.005 0.002 -0.000
1366 4 0.684 14.079 10.653 0.004 0.002 -0.001 0.000
1367 4 2.904 12.495 10.163 0.008 0.005 0.003 -0.000
1368 4 2.484 14.610 8.819 0.003 0.008 -0.006 -0.000
1369 4 4.741 12.509 8.131 -0.002 0.005 0.004 0.000
1370 4 4.496 14.687 10.467 0.008 0.004 0.008 0.000
1371 4 6.016 12.832 10.487 -0.002 0.008 -0.004 -0.000
1372 4 6.169 14.301 8.245 -0.001 0.008 0.001 0.000
1373 4 8.190 12.408 8.452 -0.005 0.004 -0.008 0.000
1374 4 8.114 14.384 10.356 -0.011 -0.005 -0.006 0.000
1375 4 10.261 12.321 10.648 -0.000 0.007 0.004 -0.000
1376 4 9.942 14.337 8.677 0.005 0.007 -0.006 0.000
1377 4 12.012 12.256 8.671 -0.014 -0.001 -0.019 0.000
1378 4 11.995 14.055 10.550 -0.005 -0.007 -0.004 0.000
1379 4 13.998 12.279 10.802 -0.004 0.006 0.000 0.000
1380 4 13.848 13.838 8.569 -0.011 -0.008 -0.004 0.000
1604 4 -1.137 -1.266 12.076 0.002 0.003 -0.004 0.000
1606 4 0.793 -0.853 13.801 0.005 0.005 -0.004 0.000
1608 4 2.776 -1.119 12.266 -0.004 -0.007 0.016 -0.000
1610 4 4.595 -1.029 13.929 0.001 -0.003 0.002 -0.000
1612 4 6.800 -0.896 12.223 0.008 -0.009 0.004 -0.000
1614 4 8.328 -0.746 14.355 -0.001 -0.001 -0.007 -0.000
1616 4 10.413 -0.800 12.341 -0.005 0.002 -0.004 0.000
1618 4 11.827 -1.117 14.185 0.005 0.011 0.006 -0.000
1620 4 14.427 -0.884 12.334 0.003 -0.001 0.006 0.000
1643 4 -1.048 0.628 13.802 -0.012 -0.006 0.001 -0.000
1644 4 -0.782 2.906 12.371 -0.006 0.003 -0.001 0.000
1645 4 0.976 0.966 11.722 -0.005 -0.001 -0.003 0.000
1646 4 0.792 2.835 14.144 -0.012 0.001 0.005 0.000
1647 4 2.769 0.750 14.195 0.011 -0.002 0.009 0.000
1648 4 2.424 2.863 12.463 0.002 0.010 -0.012 0.000
1649 4 4.610 0.920 12.230 0.008 0.007 -0.011 0.000
1650 4 4.606 2.852 14.154 -0.003 -0.004 -0.001 0.000
1651 4 6.352 0.791 14.073 0.000 0.002 0.012 -0.000
1652 4 6.652 2.669 12.421 0.005 -0.003 -0.001 0.000
1653 4 8.471 0.709 12.385 0.004 0.008 -0.001 -0.000
1654 4 8.557 2.699 14.362 -0.002 -0.004 -0.003 -0.000
1655 4 10.625 0.991 14.043 -0.001 -0.004 -0.004 -0.000
1656 4 10.323 3.259 12.304 0.002 0.002 -0.000 -0.000
1657 4 12.406 0.896 12.263 0.005 -0.002 0.002 -0.000
1658 4 11.993 3.212 14.327 -0.001 0.004 -0.001 -0.000
1659 4 14.170 1.203 14.484 -0.004 0.002 -0.001 -0.000
1660 4 13.982 3.163 12.298 0.005 -0.001 -0.004 -0.000
1683 4 -0.982 4.665 13.778 -0.010 -0.004 0.008 -0.000
1684 4 -1.317 6.746 12.529 0.005 -0.008 -0.003 0.000
1685 4 0.838 4.962 12.410 0.004 -0.003 0.000 0.000
1686 4 0.775 6.463 14.281 0.005 0.002 0.006 0.000
1687 4 2.681 4.821 14.442 -0.001 -0.001 0.013 0.000
1688 4 2.481 6.966 12.190 0.007 0.002 -0.006 0.000
1689 4 4.182 5.145 12.675 -0.002 -0.002 0.001 0.000
1690 4 4.614 6.971 14.135 0.004 0.005 -0.002 -0.000
1691 4 6.136 4.817 14.210 -0.006 -0.006 -0.001 0.000
1692 4 6.449 6.620 12.292 -0.000 -0.002 -0.003 0.000
1693 4 8.238 4.997 12.174 -0.005 -0.003 -0.005 0.000
1694 4 8.037 6.545 14.224 -0.011 0.001 -0.002 0.000
1695 4 9.967 5.152 14.079 -0.003 0.005 0.003 0.000
1696 4 9.976 6.800 12.310 -0.009 0.002 -0.006 0.000
1697 4 11.999 5.460 12.748 -0.004 -0.009 0.002 -0.000
1698 4 12.005 7.098 14.167 0.004 0.017 0.006 0.000
1699 4 14.016 4.984 14.172 0.005 0.011 0.002 -0.000
1700 4 13.892 6.785 12.353 -0.001 0.005 0.002 -0.000
1723 4 -1.388 8.669 14.319 -0.010 -0.000 0.003 0.000
1724 4 -1.240 10.577 12.391 0.002 0.000 0.003 0.000
1725 4 0.610 8.610 12.208 0.002 0.000 0.002 -0.000
1726 4 0.736 10.151 14.436 0.009 -0.002 0.003 0.000
1727 4 2.483 8.335 14.014 -0.011 0.002 0.001 -0.000
1728 4 2.651 10.358 12.456 -0.008 -0.001 0.004 -0.000
1729 4 4.295 8.476 11.916 -0.001 -0.004 -0.004 -0.000
1730 4 4.964 10.372 14.381 0.005 0.008 0.003 -0.000
1731 4 6.902 8.574 14.126 -0.004 -0.009 -0.008 -0.000
1732 4 6.044 10.947 12.106 -0.016 0.001 -0.001 -0.000
1733 4 8.362 8.837 12.190 0.010 0.002 0.006 -0.000
1734 4 8.128 10.665 14.293 -0.001 -0.011 0.002 -0.000
1735 4 9.909 8.602 14.222 -0.009 -0.011 0.006 0.000
1736 4 9.945 10.554 12.376 -0.002 -0.006 0.004 -0.000
1737 4 11.967 8.462 12.282 -0.010 -0.008 -0.009 0.000
1738 4 12.156 10.716 14.044 0.003 -0.004 0.001 0.000
1739 4 14.346 8.746 14.274 0.003 0.003 -0.004 -0.000
1740 4 13.928 10.099 12.466 -0.001 -0.007 0.007 0.000
1763 4 -1.167 12.904 14.195 0.004 0.007 -0.005 -0.000
1764 4 -1.422 14.435 11.979 -0.001 0.001 -0.010 0.000
1765 4 0.832 12.180 12.417 -0.003 -0.009 -0.006 0.000
1766 4 0.420 14.505 13.548 0.002 0.007 -0.007 0.000
1767 4 2.587 11.995 14.386 -0.000 -0.017 -0.005 0.000
1768 4 2.960 14.809 12.258 -0.000 0.001 0.004 0.000
1769 4 4.305 12.350 12.678 -0.018 -0.006 0.007 0.000
1770 4 4.524 14.562 14.221 -0.005 -0.003 -0.009 0.000
1771 4 6.524 12.686 14.460 -0.009 0.006 -0.001 -0.000
1772 4 5.978 14.445 12.270 0.006 0.001 -0.009 0.000
1773 4 8.132 12.618 12.318 -0.010 -0.005 -0.002 -0.000
1774 4 8.065 14.246 14.213 -0.010 0.009 -0.009 -0.000
1775 4 10.131 12.516 14.223 0.001 0.008 0.004 -0.000
1776 4 10.398 14.224 12.529 -0.003 -0.001 0.004 -0.000
1777 4 12.181 12.428 12.440 -0.004 -0.008 0.009 0.000
1778 4 11.924 14.351 14.700 0.005 -0.005 -0.004 -0.000
1779 4 13.779 12.275 14.362 0.003 -0.009 0.002 -0.000
1780 4 13.716 14.309 12.420 0.005 -0.006 0.001 -0.000
2004 4 -1.000 -0.937 15.901 -0.008 -0.005 0.008 -0.000
2006 4 0.483 -0.870 18.231 0.012 0.002 -0.001 -0.000
2008 4 2.793 -0.950 15.731 -0.007 -0.004 0.001 -0.000
2010 4 4.604 -1.640 17.872 -0.001 0.005 0.003 -0.000
2012 4 6.546 -1.301 15.684 -0.002 0.007 0.000 -0.000
2014 4 8.226 -0.888 17.825 -0.004 0.003 0.006 0.000
2016 4 10.181 -0.708 16.069 -0.007 -0.008 -0.008 0.000
2018 4 12.290 -1.255 18.000 0.003 -0.009 -0.003 0.000
2020 4 14.001 -1.269 15.949 -0.010 -0.006 0.001 0.000
2043 4 -1.640 1.371 17.748 -0.002 -0.005 -0.002 -0.000
2044 4 -1.312 2.716 15.379 -0.004 0.002 0.001 -0.000
2045 4 0.507 0.664 16.252 0.001 0.004 -0.002 -0.000
2046 4 0.878 2.187 18.133 0.006 0.001 -0.010 0.000
2047 4 2.937 0.306 17.974 0.007 -0.005 0.001 -0.000
2048 4 2.784 2.350 15.898 -0.007 0.008 -0.005 0.000
2049 4 4.784 0.991 16.091 0.003 -0.004 -0.003 -0.000
2050 4 4.435 2.423 17.812 0.001 0.002 0.002 0.000
2051 4 6.325 0.611 18.099 -0.001 -0.010 -0.006 -0.000
2052 4 6.875 2.590 16.248 0.004 0.004 -0.004 -0.000
2053 4 8.060 0.691 16.229 -0.004 -0.002 -0.001 -0.000
2054 4 8.334 2.988 17.988 0.000 -0.004 0.001 0.000
2055 4 10.143 0.816 18.199 -0.012 0.003 0.004 0.000
2056 4 10.202 2.653 16.711 0.004 -0.006 -0.003 0.000
2057 4 12.354 1.127 16.462 0.002 -0.001 -0.008 0.000
2058 4 12.317 3.305 17.893 -0.007 0.004 -0.004 0.000
2059 4 14.415 0.574 17.972 -0.002 0.005 -0.001 -0.000
2060 4 13.822 3.421 16.140 0.002 -0.008 0.004 0.000
2083 4 -1.575 4.548 17.986 -0.008 0.011 -0.000 0.000
2084 4 -1.247 6.481 15.712 -0.006 0.001 -0.010 -0.000
2085 4 0.241 4.417 16.439 -0.006 0.009 -0.002 -0.000
2086 4 0.637 6.593 18.074 -0.005 0.011 0.008 0.000
2087 4 2.665 4.217 17.815 0.007 -0.003 0.006 0.000
2088 4 2.677 6.753 16.301 0.007 -0.007 0.006 -0.000
2089 4 4.173 4.943 16.001 0.005 -0.008 -0.000 0.000
2090 4 4.988 6.655 18.202 0.001 0.004 0.001 -0.000
2091 4 6.167 4.401 17.966 0.012 -0.001 0.001 -0.000
2092 4 6.105 6.731 15.963 0.006 -0.003 -0.001 -0.000
2093 4 8.345 4.533 15.736 -0.000 -0.001 -0.004 -0.000
2094 4 7.947 6.355 17.805 0.002 0.003 -0.013 -0.000
2095 4 9.929 5.037 17.892 -0.002 -0.005 -0.003 0.000
2096 4 10.028 6.821 16.024 0.005 0.007 0.010 0.000
2097 4 11.840 5.471 16.191 0.002 -0.000 -0.008 0.000
2098 4 11.949 6.686 18.325 0.001 -0.008 -0.004 0.000
2099 4 14.079 5.192 18.244 -0.005 -0.006 -0.005 -0.000
2100 4 14.162 6.798 16.192 0.004 0.003 -0.007 -0.000
2123 4 -1.336 8.298 18.013 0.007 0.007 0.008 0.000
2124 4 -1.250 11.060 16.194 -0.007 -0.008 0.008 -0.000
2125 4 0.232 8.627 16.160 0.001 0.006 0.006 0.000
2126 4 0.443 10.309 17.950 0.003 -0.007 0.000 -0.000
2127 4 2.692 8.530 18.114 0.006 0.001 0.003 -0.000
2128 4 2.582 10.857 16.378 0.008 -0.006 0.002 0.000
2129 4 4.466 8.733 16.229 -0.003 0.009 -0.009 -0.000
2130 4 4.355 10.714 18.040 0.008 -0.002 -0.010 -0.000
2131 4 6.555 8.712 17.799 -0.002 0.013 0.004 -0.000
2132 4 6.414 10.610 16.326 -0.014 0.007 0.009 -0.000
2133 4 8.198 8.831 16.071 0.007 0.006 0.003 0.000
2134 4 8.358 10.635 18.022 0.002 0.007 -0.007 -0.000
2135 4 10.108 8.675 17.926 0.006 -0.003 0.013 0.000
2136 4 10.434 10.682 16.280 -0.004 -0.014 0.007 0.000
2137 4 12.291 8.385 16.013 0.005 -0.006 -0.011 0.000
2138 4 12.243 11.083 18.074 -0.003 0.002 0.002 -0.000
2139 4 13.576 8.401 18.701 -0.000 -0.001 -0.008 -0.000
2140 4 13.782 10.467 16.039 0.008 0.002 0.007 -0.000
2163 4 -1.288 12.271 18.371 -0.002 0.010 0.010 -0.000
2164 4 -1.767 14.546 16.009 0.003 0.002 0.002 -0.000
2165 4 0.591 12.400 16.192 -0.003 0.003 0.002 -0.000
2166 4 1.136 14.204 18.427 -0.003 -0.002 0.001 0.000
2167 4 2.582 12.368 18.281 0.005 0.003 -0.006 -0.000
2168 4 2.345 14.181 16.026 -0.007 -0.001 -0.002 0.000
2169 4 4.588 12.620 16.078 0.000 0.002 0.014 0.000
2170 4 4.224 14.527 17.989 -0.007 -0.004 -0.001 0.000
2171 4 6.453 12.646 18.055 0.002 -0.008 -0.007 0.000
2172 4 6.338 14.492 16.187 -0.001 0.000 0.008 0.000
2173 4 8.380 12.735 16.321 0.001 0.003 0.001 0.000
2174 4 8.377 14.335 18.254 0.012 -0.006 0.004 0.000
2175 4 10.054 12.402 18.141 -0.000 -0.002 -0.003 -0.000
2176 4 10.211 14.289 16.482 -0.009 0.001 -0.003 0.000
2177 4 11.863 12.620 16.177 -0.009 -0.002 -0.007 0.000
2178 4 12.242 14.329 18.126 -0.005 0.000 0.002 0.000
2179 4 14.026 12.324 18.127 0.001 0.007 -0.008 -0.000
2180 4 14.049 14.178 15.880 0.004 0.003 -0.005 -0.000
2404 4 -1.477 -1.405 19.545 -0.006 0.001 -0.001 -0.000
2408 4 2.727 -1.251 19.696 -0.002 -0.003 0.000 -0.000
2412 4 6.755 -1.014 19.996 0.003 -0.008 -0.004 0.000
2416 4 10.350 -1.143 19.769 -0.006 -0.005 -0.001 0.000
2420 4 14.180 -0.731 19.979 0.012 -0.014 0.003 -0.000
2444 4 -1.099 2.864 19.847 -0.003 0.006 -0.008 0.000
2445 4 0.695 0.789 19.848 -0.009 -0.004 0.009 0.000
2448 4 2.911 2.586 20.079 0.002 -0.008 -0.004 0.000
2449 4 4.613 0.555 19.912 0.007 -0.000 0.005 0.000
2452 4 6.565 2.616 19.809 -0.006 -0.004 0.001 0.000
2453 4 8.213 0.627 20.176 0.010 0.007 0.006 0.000
2456 4 9.979 2.790 19.702 0.006 -0.007 0.003 0.000
2457 4 12.281 1.126 20.028 0.001 0.005 -0.002 0.000
2460 4 14.305 2.391 19.566 0.012 0.003 0.014 0.000
2484 4 -1.170 6.848 19.856 -0.007 0.010 0.004 0.000
2485 4 0.848 4.512 19.599 -0.003 0.004 0.001 0.000
2488 4 2.930 6.733 19.646 0.010 -0.002 0.003 0.000
2489 4 4.515 4.767 20.096 -0.009 0.002 0.003 -0.000
2492 4 6.550 6.826 19.866 -0.007 0.006 -0.003 -0.000
2493 4 8.447 4.937 19.669 -0.007 0.002 0.007 0.000
2496 4 9.989 6.838 19.725 -0.002 0.002 -0.007 0.000
2497 4 11.999 4.475 20.154 0.006 -0.000 0.003 0.000
2500 4 14.006 6.460 20.409 -0.001 -0.001 -0.001 -0.000
2524 4 -1.291 10.137 19.995 -0.001 0.012 0.006 -0.000
2525 4 0.942 8.596 20.151 -0.010 -0.006 -0.007 0.000
2528 4 2.846 10.121 20.399 -0.010 0.002 -0.000 -0.000
2529 4 4.471 8.542 19.834 0.004 -0.006 0.001 -0.000
2532 4 6.435 10.346 19.924 -0.006 0.003 -0.011 -0.000
2533 4 8.069 8.596 19.865 -0.012 -0.002 -0.002 -0.000
2536 4 10.079 10.694 20.023 -0.005 -0.008 0.002 -0.000
2537 4 12.028 8.522 20.603 -0.010 0.001 -0.007 -0.000
2540 4 13.923 10.319 20.192 0.002 0.012 0.007 -0.000
2564 4 -1.407 14.056 19.914 -0.005 0.005 -0.002 0.000
2565 4 0.706 11.913 20.183 -0.005 -0.007 0.000 -0.000
2568 4 2.632 14.565 20.043 0.005 -0.000 0.008 -0.000
2569 4 4.388 12.889 20.153 0.005 0.001 -0.005 -0.000
2572 4 6.656 14.565 20.125 0.004 -0.001 0.001 -0.000
2573 4 8.112 12.304 19.825 0.001 0.002 0.009 -0.000
2576 4 10.250 14.069 19.955 -0.006 -0.006 0.003 -0.000
2577 4 12.092 12.321 20.143 0.011 -0.004 0.002 -0.000
2580 4 13.957 13.714 20.143 0.000 0.003 0.002 -0.000
2578 4 11.987 14.176 21.783 -0.002 0.004 0.002 -0.000
2523 4 -1.019 8.503 22.403 -0.005 0.006 -0.004 0.000
2527 4 2.660 8.150 21.878 0.014 0.002 0.003 0.000
2531 4 6.287 8.415 21.851 0.006 0.006 0.001 -0.000
2483 4 -1.179 4.649 21.834 -0.007 0.013 0.008 0.000
2458 4 11.889 2.625 22.122 -0.010 -0.003 -0.003 -0.000
2499 4 14.062 4.439 22.089 -0.004 0.001 0.001 -0.000
2495 4 10.185 4.785 22.142 -0.005 0.002 -0.004 0.000
2455 4 10.547 0.449 21.746 0.002 -0.002 0.012 -0.000
2447 4 2.518 0.803 21.277 0.003 -0.003 0.008 0.000
2486 4 0.407 6.366 21.635 -0.003 0.001 -0.008 0.000
2406 4 1.019 -1.081 21.591 0.009 0.004 0.002 0.000
2454 4 8.503 2.439 22.163 0.002 -0.017 -0.004 0.000
2459 4 14.277 1.036 21.743 -0.001 -0.005 0.006 -0.000
2535 4 9.954 8.474 22.044 -0.001 -0.007 -0.002 0.000
2574 4 8.499 14.408 22.047 0.003 -0.003 -0.005 -0.000
2450 4 4.721 2.537 21.849 -0.000 -0.006 0.003 0.000
2575 4 9.892 12.311 22.147 0.005 -0.004 0.002 -0.000
2579 4 13.919 12.263 22.095 -0.006 -0.009 0.000 0.000
2491 4 7.288 4.466 22.073 0.002 -0.000 -0.008 0.000
2526 4 0.869 10.092 21.999 0.005 0.003 -0.002 0.000
2451 4 6.333 0.739 21.999 -0.005 -0.002 0.013 0.000
2567 4 2.718 12.445 21.797 -0.001 -0.001 -0.004 -0.000
2530 4 4.978 10.837 21.804 0.001 -0.004 -0.009 -0.000
2418 4 12.337 -1.409 21.709 0.002 -0.000 0.001 -0.000
2571 4 6.994 12.526 21.704 0.001 -0.004 0.003 0.000
2534 4 8.076 10.399 21.752 0.003 -0.007 0.004 -0.000
2494 4 8.053 6.603 21.838 0.002 -0.005 -0.008 0.000
2410 4 4.483 -1.278 21.694 0.008 0.005 0.000 -0.000
2443 4 -1.061 0.568 21.244 -0.004 0.006 0.006 0.000
2498 4 12.620 6.472 22.345 0.010 -0.001 0.002 0.000
2570 4 4.692 14.526 21.844 0.004 0.004 0.010 -0.000
2446 4 0.556 2.971 21.702 0.010 0.005 -0.004 0.000
2563 4 -1.089 12.477 21.968 0.003 -0.011 0.000 0.000
2487 4 2.530 4.491 21.859 -0.002 -0.009 0.001 0.000
2566 4 0.733 14.003 21.988 0.011 -0.008 -0.009 0.000
2490 4 4.767 6.623 22.016 -0.000 0.009 -0.009 -0.000
2539 4 13.922 8.412 22.223 -0.003 -0.003 -0.001 0.000
2538 4 11.815 10.530 22.098 0.006 0.005 0.004 -0.000
2414 4 8.268 -1.150 22.276 -0.002 0.006 0.019 0.000
2442 4 -2.938 2.491 21.485 0.003 0.014 -0.001 0.000
605 4 0.755 16.120 0.631 -0.002 -0.003 0.008 -0.000
1382 4 15.591 14.078 10.389 0.014 0.003 0.003 -0.000
142 4 15.995 10.916 -1.111 0.004 0.007 0.002 -0.000
922 4 -2.544 10.959 6.163 0.002 -0.015 0.003 0.000
2081 4 -2.934 4.456 15.609 -0.011 0.010 -0.002 -0.000
2141 4 15.863 8.651 16.183 -0.004 0.004 0.004 -0.000
582 4 15.770 14.148 3.030 0.007 -0.001 -0.005 -0.000
1281 4 -2.590 4.907 8.460 -0.005 0.002 0.000 -0.000
882 4 -2.951 6.815 6.352 0.002 -0.007 0.010 -0.000
402 4 -3.035 -1.031 2.731 0.003 -0.003 0.010 -0.000
42 4 -2.820 3.050 -0.832 -0.003 -0.001 -0.004 0.000
1009 4 4.313 16.156 4.580 -0.002 0.010 0.003 -0.000
203 4 -1.363 16.150 -1.137 0.009 0.001 0.011 0.000
619 4 14.085 15.943 2.641 -0.003 0.003 -0.009 0.000
982 4 15.783 13.998 6.563 0.004 0.000 0.003 -0.000
542 4 15.896 10.417 2.808 -0.004 -0.002 0.002 -0.000
2181 4 15.719 12.097 16.031 0.003 -0.000 0.005 -0.000
1202 4 -3.006 -1.225 10.235 -0.004 -0.005 -0.003 0.000
802 4 -2.922 -1.246 6.109 0.001 0.000 0.000 -0.000
211 4 6.536 16.122 -1.178 0.001 -0.002 0.001 -0.000
1701 4 15.997 4.923 12.063 0.008 -0.000 0.001 -0.000
2102 4 15.643 6.725 18.110 -0.003 0.008 0.002 -0.000
981 4 15.530 12.160 4.629 -0.001 -0.006 -0.014 -0.000
2542 4 15.701 10.205 22.382 -0.011 0.009 0.007 0.000
1021 4 15.745 15.877 4.738 -0.009 0.002 -0.002 -0.000
522 4 -2.966 10.732 2.747 -0.016 -0.005 -0.010 0.000
603 4 -1.249 15.639 2.431 -0.011 -0.008 -0.009 0.000
1005 4 1.050 15.686 4.614 -0.007 -0.007 -0.001 -0.000
1381 4 15.877 12.348 8.713 0.006 0.008 0.002 -0.000
2541 4 15.847 8.262 20.334 0.007 0.007 0.003 -0.000
521 4 -3.084 9.127 0.624 -0.013 0.017 -0.000 0.000
2082 4 -3.083 6.483 18.335 -0.010 0.003 0.004 0.000
607 4 2.797 16.086 2.623 0.003 0.002 0.004 0.000
56 4 10.385 3.141 -2.848 -0.004 0.002 0.007 -0.000
941 4 16.001 8.736 4.815 0.004 0.002 -0.003 -0.000
942 4 15.406 10.494 6.793 -0.008 -0.003 -0.007 -0.000
1341 4 15.759 8.445 8.605 0.002 -0.003 0.007 -0.000
441 4 -2.812 1.018 0.696 0.003 0.009 -0.003 -0.000
481 4 -2.996 4.750 0.482 0.002 -0.009 0.004 0.000
2 4 -2.818 -1.058 -1.065 -0.012 0.005 -0.009 -0.000
1641 4 -3.130 1.042 12.101 -0.005 -0.003 0.009 -0.000
1681 4 -2.984 4.957 12.260 -0.004 0.001 0.010 -0.000
841 4 -3.117 0.911 4.628 -0.001 0.004 0.003 -0.000
613 4 8.439 16.012 0.818 -0.004 0.001 0.005 0.000
2415 4 10.072 -2.572 21.879 0.006 -0.004 0.002 -0.000
93 4 8.435 4.768 -2.842 -0.007 -0.011 0.002 0.000