ITEM: TIMESTEP
16000
ITEM: NUMBER OF ATOMS
32000
ITEM: BOX BOUNDS pp pp pp
-3.097349 73.577349
-3.094300 73.574300
-2.877297 73.357297
ITEM: ATOMS id type x y z vx vy vz q
6 4 0.351 -1.198 -0.906 -0.005 -0.009 0.003 -0.000
10 4 4.423 -1.481 -1.108 -0.005 -0.005 -0.008 -0.000
14 4 8.275 -0.697 -1.011 -0.003 -0.000 -0.013 0.000
18 4 12.026 -1.244 -1.059 -0.002 -0.006 0.003 -0.000
43 4 -1.556 0.340 -1.069 -0.005 0.006 0.008 -0.000
46 4 0.162 2.454 -0.861 0.002 0.007 -0.005 -0.000
47 4 2.540 0.554 -0.653 0.003 0.005 0.002 -0.000
50 4 3.919 2.455 -0.951 -0.000 -0.012 -0.007 -0.000
51 4 6.506 1.244 -0.720 -0.003 0.006 0.009 -0.000
54 4 8.268 3.088 -1.557 -0.002 0.011 0.004 -0.000
55 4 10.352 0.974 -1.181 0.001 -0.003 -0.015 0.000
58 4 12.309 2.661 -1.109 0.005 0.016 0.005 -0.000
59 4 14.246 1.028 -1.281 0.006 0.016 -0.002 -0.000
83 4 -1.054 4.980 -1.256 -0.006 0.014 -0.008 0.000
86 4 0.602 6.657 -1.051 -0.004 0.006 -0.004 -0.000
87 4 2.478 4.589 -0.938 -0.004 0.005 -0.001 0.000
90 4 4.215 6.555 -0.967 0.001 0.002 -0.005 -0.000
91 4 6.301 4.602 -0.703 -0.003 0.001 0.003 -0.000
94 4 8.578 6.043 -1.105 0.011 -0.010 -0.001 -0.000
95 4 10.484 4.255 -1.088 -0.003 0.002 0.007 0.000
98 4 11.833 6.675 -1.060 0.003 0.007 -0.002 0.000
99 4 13.990 4.680 -0.829 0.002 -0.001 0.001 0.000
123 4 -0.924 8.846 -0.776 0.001 0.004 0.002 -0.000
126 4 0.729 10.679 -0.962 0.004 -0.001 0.002 0.000
127 4 2.251 8.410 -0.814 -0.004 -0.009 0.003 -0.000
130 4 4.300 9.882 -0.874 0.008 -0.005 -0.007 0.000
131 4 6.341 8.122 -1.144 0.002 0.004 -0.003 -0.000
134 4 8.189 9.962 -0.961 -0.001 0.007 -0.002 0.000
135 4 10.198 8.524 -0.797 -0.004 -0.003 -0.004 -0.000
138 4 12.221 10.184 -1.046 -0.004 -0.006 0.002 -0.000
139 4 14.292 8.519 -1.024 0.001 0.001 0.005 0.000
163 4 -1.199 12.141 -0.974 0.001 -0.003 0.001 0.000
166 4 0.844 14.084 -0.959 -0.015 0.002 -0.004 0.000
167 4 2.690 11.944 -0.806 0.003 -0.001 -0.016 0.000
170 4 4.273 13.925 -1.247 0.009 -0.001 -0.000 -0.000
171 4 6.081 12.158 -0.985 0.005 0.008 0.014 0.000
174 4 8.318 14.208 -1.260 -0.005 0.004 -0.001 0.000
175 4 10.140 12.582 -0.886 -0.006 -0.003 -0.001 -0.000
178 4 12.203 13.988 -0.877 0.005 0.003 -0.005 0.000
179 4 14.234 12.386 -0.973 0.010 0.007 0.002 -0.000
404 4 -1.250 -1.542 0.799 0.004 -0.000 0.007 0.000
406 4 0.833 -1.655 3.038 -0.003 -0.000 0.005 0.000
408 4 2.225 -1.325 0.942 -0.005 -0.002 -0.003 0.000
410 4 4.397 -0.980 3.001 -0.008 -0.002 -0.002 0.000
412 4 6.158 -1.101 0.891 0.007 -0.003 -0.007 -0.000
414 4 8.508 -0.986 2.854 -0.006 -0.007 0.004 -0.000
416 4 10.264 -0.764 0.566 0.001 0.000 0.004 -0.000
418 4 12.180 -1.357 2.999 -0.003 0.008 0.001 -0.000
420 4 14.398 -1.132 0.740 0.001 -0.007 -0.000 -0.000
443 4 -1.675 0.783 3.150 0.002 0.005 -0.004 -0.000
444 4 -1.184 2.488 1.098 -0.001 0.005 -0.001 0.000
445 4 0.524 0.688 1.307 -0.007 -0.001 -0.008 0.000
446 4 0.534 2.654 3.088 -0.002 0.007 0.001 -0.000
447 4 2.336 0.579 2.814 0.004 0.003 -0.003 -0.000
448 4 2.237 2.822 1.107 -0.002 0.005 -0.002 0.000
449 4 4.688 0.548 1.036 -0.002 -0.002 0.002 0.000
450 4 4.496 2.670 2.720 0.000 0.008 0.007 0.000
451 4 6.752 0.778 2.532 -0.003 -0.002 -0.003 0.000
452 4 6.476 2.723 1.121 0.002 0.009 -0.004 0.000
453 4 8.518 0.839 0.732 0.004 0.006 -0.001 -0.000
454 4 8.664 2.173 2.919 0.008 0.010 -0.002 -0.000
455 4 10.688 0.558 2.966 -0.000 0.002 -0.002 -0.000
456 4 10.354 2.464 0.806 0.002 0.002 -0.008 0.000
457 4 12.411 0.648 0.618 0.004 -0.005 0.002 0.000
458 4 12.656 2.624 2.565 -0.006 -0.001 -0.008 0.000
459 4 13.925 0.579 2.437 0.003 0.007 0.006 0.000
460 4 14.568 2.367 0.726 -0.007 -0.002 -0.003 0.000
483 4 -1.335 4.572 2.889 -0.007 0.007 0.011 0.000
484 4 -1.131 6.422 1.223 -0.007 -0.004 -0.003 -0.000
485 4 0.746 4.719 1.308 -0.014 0.000 0.002 -0.000
486 4 0.450 6.390 2.923 0.002 -0.000 0.003 -0.000
487 4 2.374 4.645 2.854 -0.010 0.003 0.009 0.000
488 4 2.501 6.688 1.152 0.006 0.003 0.009 -0.000
489 4 4.372 4.602 1.160 0.001 -0.012 0.002 -0.000
490 4 4.539 6.270 3.017 0.000 -0.006 0.002 -0.000
491 4 6.877 4.680 2.766 -0.006 0.001 0.008 0.000
492 4 6.620 6.333 0.919 -0.004 0.013 -0.003 0.000
493 4 8.540 4.271 1.034 -0.008 0.001 0.009 -0.000
494 4 8.388 6.409 2.647 -0.003 -0.000 -0.002 0.000
495 4 10.385 4.307 2.697 0.002 -0.005 0.003 -0.000
496 4 10.506 6.326 1.030 0.002 -0.007 0.003 -0.000
497 4 12.208 4.430 0.670 0.001 -0.004 0.011 -0.000
498 4 12.335 6.531 3.037 0.003 0.002 -0.000 0.000
499 4 14.308 4.360 2.564 0.000 -0.004 -0.010 0.000
500 4 13.843 6.406 0.773 -0.011 0.005 0.004 -0.000
523 4 -1.182 8.660 2.932 0.003 0.009 -0.002 0.000
524 4 -1.086 10.445 1.204 0.003 -0.003 -0.001 -0.000
525 4 0.610 8.397 1.080 -0.015 -0.002 -0.011 0.000
526 4 0.958 10.304 3.001 -0.002 0.009 0.001 -0.000
527 4 2.098 8.206 3.143 -0.009 0.001 -0.006 -0.000
528 4 2.516 10.022 0.871 -0.003 -0.010 -0.006 0.000
529 4 4.286 8.126 1.159 -0.007 -0.001 0.001 0.000
530 4 4.677 9.999 2.822 0.008 -0.006 0.005 0.000
531 4 6.328 8.076 3.002 -0.014 0.004 0.009 0.000
532 4 6.319 9.993 0.781 0.007 0.001 0.009 -0.000
533 4 8.358 8.279 0.915 0.003 -0.003 0.002 -0.000
534 4 8.559 10.440 2.341 0.008 0.005 0.013 -0.000
535 4 10.504 8.434 2.790 0.002 0.007 -0.006 -0.000
536 4 10.353 10.334 0.674 0.006 0.003 0.003 -0.000
537 4 12.566 8.372 1.458 -0.001 -0.005 0.001 0.000
538 4 12.999 10.443 2.672 0.007 -0.004 -0.006 -0.000
539 4 14.407 8.577 3.033 -0.005 -0.004 0.002 0.000
540 4 14.581 10.322 0.723 -0.001 -0.002 0.013 0.000
563 4 -1.311 12.087 2.781 0.001 -0.006 0.001 0.000
564 4 -0.958 13.858 0.916 0.006 0.005 -0.002 -0.000
565 4 0.596 12.171 1.221 0.000 -0.003 0.003 0.000
566 4 0.658 14.000 2.893 0.000 -0.001 0.003 0.000
567 4 3.056 11.831 3.002 -0.004 -0.007 0.005 -0.000
568 4 2.836 13.889 0.963 -0.001 -0.001 0.012 -0.000
569 4 4.642 12.178 0.930 0.006 -0.001 -0.011 0.000
570 4 4.841 13.815 2.725 -0.001 -0.001 0.001 -0.000
571 4 6.722 12.044 2.886 0.004 0.009 0.002 0.000
572 4 6.236 13.959 0.528 0.011 -0.008 0.003 -0.000
573 4 8.309 12.357 0.605 -0.010 0.008 0.000 -0.000
574 4 7.948 13.955 2.589 -0.008 -0.020 0.004 -0.000
575 4 9.777 12.457 2.406 0.002 0.001 -0.003 -0.000
576 4 10.097 14.502 1.127 -0.003 -0.002 -0.001 -0.000
577 4 12.504 12.114 0.946 0.002 0.015 -0.003 0.000
578 4 12.051 13.992 2.373 -0.002 -0.000 -0.010 0.000
579 4 14.448 12.098 3.071 -0.004 -0.011 -0.000 0.000
580 4 14.187 14.228 0.659 -0.002 0.004 0.007 0.000
804 4 -1.593 -1.078 4.854 0.001 -0.001 -0.013 0.000
806 4 0.256 -1.136 6.730 -0.007 -0.005 -0.001 -0.000
808 4 2.433 -0.930 4.969 0.000 -0.009 0.001 -0.000
810 4 4.548 -1.044 6.352 -0.006 -0.005 0.003 0.000
812 4 6.082 -1.504 4.345 -0.004 -0.001 0.002 -0.000
814 4 8.144 -0.946 6.351 -0.011 -0.014 0.005 0.000
816 4 10.427 -1.063 5.042 0.008 0.004 -0.001 0.000
818 4 12.351 -1.286 6.442 -0.006 0.007 -0.006 -0.000
820 4 14.139 -1.425 4.614 -0.003 -0.007 -0.006 0.000
843 4 -1.267 0.959 6.883 0.010 0.007 0.003 0.000
844 4 -1.367 2.645 4.908 0.003 -0.000 0.002 0.000
845 4 0.541 0.838 4.836 -0.001 -0.007 -0.006 -0.000
846 4 0.600 3.138 6.961 -0.000 -0.007 0.010 0.000
847 4 2.659 0.952 6.755 0.007 0.004 -0.003 0.000
848 4 2.291 2.168 4.862 -0.001 0.004 -0.009 -0.000
849 4 4.479 0.996 4.853 0.007 0.003 0.001 -0.000
850 4 4.521 2.789 6.279 0.005 0.001 -0.003 0.000
851 4 6.341 0.490 6.169 0.001 -0.007 -0.003 -0.000
852 4 6.773 2.531 4.244 0.002 -0.005 -0.001 -0.000
853 4 8.458 0.849 4.725 -0.002 -0.001 -0.007 0.000
854 4 8.380 2.381 6.654 -0.000 0.011 0.005 -0.000
855 4 10.362 0.955 6.454 -0.006 0.008 -0.003 0.000
856 4 10.537 2.706 4.601 0.007 -0.004 -0.003 -0.000
857 4 12.500 0.889 4.516 0.012 -0.003 -0.007 0.000
858 4 12.265 2.651 6.373 0.011 0.008 -0.003 -0.000
859 4 14.162 0.916 6.193 0.007 0.002 0.003 0.000
860 4 14.255 2.578 4.494 0.010 0.001 0.001 0.000
883 4 -1.570 4.782 6.621 -0.005 0.007 0.007 0.000
884 4 -1.504 6.632 4.906 0.000 0.009 0.003 0.000
885 4 0.564 4.456 4.974 0.006 -0.004 0.008 -0.000
886 4 0.476 6.458 6.703 0.008 -0.003 0.006 0.000
887 4 2.491 4.536 6.470 0.003 -0.002 -0.002 0.000
888 4 2.620 6.319 4.407 0.001 0.000 -0.007 0.000
889 4 4.447 4.307 4.534 0.010 0.006 0.003 0.000
890 4 4.329 6.120 6.420 0.003 0.001 0.008 -0.000
891 4 6.623 4.322 6.397 0.002 -0.004 -0.001 0.000
892 4 6.504 6.240 4.883 0.001 -0.000 0.000 0.000
893 4 8.744 4.250 4.874 0.002 -0.002 -0.006 0.000
894 4 8.362 6.783 6.503 0.003 0.001 0.001 -0.000
895 4 10.419 4.598 6.527 -0.003 0.000 0.003 -0.000
896 4 9.878 6.203 4.292 0.002 -0.001 -0.006 -0.000
897 4 12.372 4.601 4.485 -0.003 0.003 0.002 0.000
898 4 12.017 6.598 6.188 0.004 0.003 0.010 0.000
899 4 13.983 4.728 6.603 0.001 0.007 -0.004 0.000
900 4 13.938 6.488 4.675 -0.002 -0.009 0.003 -0.000
923 4 -1.552 8.589 6.774 0.009 -0.000 0.000 0.000
924 4 -1.267 10.398 4.752 -0.001 0.006 -0.011 0.000
925 4 0.472 8.350 4.937 0.009 -0.010 -0.009 -0.000
926 4 0.365 10.233 6.606 -0.013 -0.006 -0.005 0.000
927 4 2.149 8.707 6.635 0.000 0.001 -0.011 -0.000
928 4 2.764 10.327 4.947 -0.003 -0.000 0.008 0.000
929 4 4.309 8.192 5.005 -0.001 -0.006 0.002 0.000
930 4 4.320 10.475 6.699 -0.004 -0.001 -0.012 -0.000
931 4 6.407 8.512 6.501 -0.005 0.012 0.013 0.000
932 4 7.070 10.039 4.771 -0.003 0.003 -0.002 0.000
933 4 8.634 8.412 4.250 0.004 -0.005 -0.010 0.000
934 4 8.726 9.980 6.302 -0.008 0.010 0.004 -0.000
935 4 10.216 8.146 6.129 0.009 -0.012 0.005 0.000
936 4 10.633 10.653 4.512 0.012 -0.008 0.005 0.000
937 4 12.384 8.590 4.414 0.009 -0.012 0.004 -0.000
938 4 12.130 10.203 6.545 -0.003 0.009 -0.003 -0.000
939 4 14.188 8.558 6.477 -0.006 -0.005 0.002 0.000
940 4 14.446 10.381 4.958 -0.001 0.002 0.006 0.000
963 4 -1.445 11.949 6.608 0.008 0.009 -0.001 0.000
964 4 -1.301 14.356 4.656 -0.003 -0.001 -0.004 -0.000
965 4 0.651 12.212 4.685 -0.010 0.007 0.000 -0.000
966 4 0.631 13.702 6.822 -0.001 -0.009 0.001 0.000
967 4 2.854 12.377 6.142 0.002 0.006 -0.006 -0.000
968 4 2.655 13.724 4.403 -0.006 0.009 -0.000 -0.000
969 4 4.764 12.080 4.684 0.003 0.000 0.002 0.000
970 4 4.530 13.932 6.677 0.007 -0.003 -0.012 0.000
971 4 6.353 12.170 6.694 0.004 0.001 0.001 0.000
972 4 6.534 14.180 4.502 0.005 0.002 -0.003 -0.000
973 4 8.483 12.231 4.549 -0.003 0.002 -0.002 -0.000
974 4 8.488 13.557 6.658 0.003 -0.001 0.004 -0.000
975 4 10.191 12.207 6.594 -0.002 0.002 -0.004 0.000
976 4 9.942 14.062 4.443 0.012 -0.010 0.002 0.000
977 4 11.972 12.658 4.411 0.001 0.001 0.012 -0.000
978 4 11.992 13.798 6.437 0.005 -0.001 -0.003 -0.000
979 4 14.119 12.410 6.521 -0.005 0.002 -0.003 -0.000
980 4 14.195 14.111 4.445 0.004 0.006 -0.005 0.000
1204 4 -1.155 -0.758 8.918 0.003 0.006 -0.003 0.000
1206 4 0.890 -0.626 10.222 -0.002 0.001 -0.000 0.000
1208 4 2.815 -1.392 7.905 0.002 -0.001 -0.001 -0.000
1210 4 4.518 -1.123 10.485 0.007 0.006 0.004 0.000
1212 4 6.275 -1.321 8.120 -0.006 0.000 0.001 -0.000
1214 4 7.975 -1.419 10.509 -0.002 -0.001 0.010 -0.000
1216 4 10.179 -1.070 8.064 0.008 -0.001 -0.011 -0.000
1218 4 12.095 -0.883 10.464 -0.005 0.007 0.002 -0.000
1220 4 14.315 -1.326 8.566 -0.003 -0.003 0.006 -0.000
1243 4 -1.470 0.912 10.925 -0.009 -0.012 -0.002 0.000
1244 4 -1.555 2.726 9.205 -0.009 0.002 -0.009 0.000
1245 4 0.734 1.117 8.096 0.005 -0.004 -0.004 -0.000
1246 4 0.491 2.729 11.041 0.003 0.008 -0.004 0.000
1247 4 2.599 0.831 10.479 -0.002 -0.000 -0.005 0.000
1248 4 2.264 2.626 8.863 0.007 -0.002 -0.005 0.000
1249 4 4.641 1.185 8.299 -0.006 0.001 -0.005 -0.000
1250 4 4.794 2.714 10.202 0.001 0.005 0.004 0.000
1251 4 6.306 0.327 10.378 -0.006 -0.002 -0.006 0.000
1252 4 6.564 2.769 8.241 0.005 0.004 -0.012 0.000
1253 4 8.454 0.469 8.766 -0.004 0.002 -0.004 0.000
1254 4 7.959 2.717 10.303 0.006 -0.002 0.001 -0.000
1255 4 10.147 1.026 10.075 0.008 -0.002 -0.003 0.000
1256 4 10.320 2.870 8.461 -0.011 0.013 -0.001 -0.000
1257 4 12.199 0.488 8.082 -0.003 0.007 -0.004 0.000
1258 4 12.093 2.495 10.123 -0.003 -0.004 -0.004 -0.000
1259 4 14.106 1.069 10.368 -0.002 -0.015 -0.000 -0.000
1260 4 13.976 2.611 7.963 0.001 -0.004 -0.002 -0.000
1283 4 -1.318 5.011 10.656 0.011 -0.009 -0.000 0.000
1284 4 -1.433 6.414 8.520 0.001 0.002 0.002 0.000
1285 4 0.729 4.885 8.910 -0.008 -0.001 0.008 -0.000
1286 4 0.617 6.714 10.633 0.002 0.005 0.004 -0.000
1287 4 2.686 4.199 10.284 -0.008 -0.007 0.001 -0.000
1288 4 2.532 6.304 8.537 -0.005 0.003 -0.007 0.000
1289 4 4.485 4.571 8.286 0.002 0.012 0.003 -0.000
1290 4 4.385 6.267 10.236 -0.004 0.006 0.003 -0.000
1291 4 6.321 4.654 10.367 -0.003 0.007 -0.002 -0.000
1292 4 6.234 6.443 8.250 -0.004 0.006 0.003 0.000
1293 4 8.202 4.937 8.394 0.003 0.013 0.002 -0.000
1294 4 8.010 6.695 10.325 -0.004 -0.006 0.002 -0.000
1295 4 10.057 5.066 10.154 -0.001 0.007 0.006 0.000
1296 4 10.485 6.697 8.244 -0.014 0.008 -0.006 -0.000
1297 4 12.248 4.536 8.271 -0.007 0.006 0.005 -0.000
1298 4 12.015 7.125 10.091 -0.004 0.007 0.004 0.000
1299 4 14.195 4.410 10.222 -0.016 0.007 0.005 0.000
1300 4 13.785 6.801 8.240 0.006 -0.006 0.003 -0.000
1323 4 -1.540 8.213 11.136 -0.000 0.002 -0.001 0.000
1324 4 -1.308 10.252 8.811 -0.001 -0.008 0.009 0.000
1325 4 0.822 8.126 8.773 0.008 0.007 0.003 -0.000
1326 4 0.549 10.040 10.541 -0.006 0.010 -0.009 0.000
1327 4 2.599 8.576 10.787 -0.001 0.001 0.011 -0.000
1328 4 2.733 10.118 8.821 -0.004 -0.003 0.001 0.000
1329 4 4.443 8.255 8.580 0.002 -0.005 -0.004 -0.000
1330 4 4.388 10.440 10.718 0.002 -0.002 0.002 0.000
1331 4 5.960 8.333 10.411 0.006 -0.002 -0.008 -0.000
1332 4 5.943 10.409 8.868 0.012 -0.004 0.003 0.000
1333 4 8.000 8.815 8.335 -0.006 -0.000 0.006 0.000
1334 4 8.010 10.169 10.548 -0.003 0.013 -0.014 0.000
1335 4 9.976 8.458 10.216 -0.007 0.004 0.002 -0.000
1336 4 10.358 10.351 8.683 0.001 -0.003 -0.005 0.000
1337 4 12.090 8.422 8.138 -0.006 -0.006 -0.002 0.000
1338 4 12.291 10.201 10.070 -0.001 0.006 0.004 -0.000
1339 4 14.042 8.406 10.051 -0.003 0.003 -0.002 0.000
1340 4 13.939 10.399 8.463 0.010 -0.001 -0.013 -0.000
1363 4 -1.367 12.033 10.616 -0.008 0.000 -0.001 0.000
1364 4 -1.080 14.066 8.640 -0.002 -0.002 0.009 0.000
1365 4 0.921 11.846 8.512 0.008 -0.019 0.003 -0.000
1366 4 0.349 13.726 10.615 0.010 0.009 -0.007 0.000
1367 4 2.252 12.039 10.918 0.006 -0.004 -0.009 0.000
1368 4 2.461 14.196 8.679 -0.000 -0.010 -0.004 -0.000
1369 4 4.060 12.218 9.022 -0.004 0.006 -0.010 -0.000
1370 4 4.418 14.306 10.637 0.007 -0.001 0.003 0.000
1371 4 6.049 12.098 10.701 0.008 -0.008 0.000 0.000
1372 4 6.397 13.939 8.437 0.011 -0.003 -0.003 0.000
1373 4 8.057 11.587 8.667 -0.008 -0.006 -0.002 -0.000
1374 4 8.050 13.553 10.490 -0.004 -0.007 0.004 0.000
1375 4 10.225 12.435 10.238 0.007 0.004 0.000 0.000
1376 4 10.519 14.188 8.353 0.017 -0.001 -0.008 -0.000
1377 4 11.865 12.141 8.328 0.001 0.007 -0.008 -0.000
1378 4 11.920 14.056 10.357 -0.002 -0.005 -0.008 0.000
1379 4 13.966 11.973 10.485 0.007 0.004 0.001 0.000
1380 4 13.887 13.616 8.603 -0.003 0.003 0.011 -0.000
1604 4 -1.127 -1.107 12.325 -0.010 0.001 0.001 0.000
1606 4 1.577 -1.382 14.260 0.009 -0.014 0.012 -0.000
1608 4 2.723 -0.958 12.134 -0.002 0.001 -0.005 -0.000
1610 4 5.038 -0.942 14.842 0.002 -0.005 -0.004 -0.000
1612 4 6.397 -1.166 12.356 -0.009 -0.005 0.005 0.000
1614 4 7.972 -1.123 14.396 -0.001 -0.004 0.005 -0.000
1616 4 10.023 -0.987 12.168 0.005 -0.000 -0.002 0.000
1618 4 12.207 -1.122 13.880 -0.011 0.000 -0.001 0.000
1620 4 14.283 -0.893 12.110 -0.007 0.004 -0.003 0.000
1643 4 -0.928 0.871 14.242 0.001 0.004 -0.011 0.000
1644 4 -1.641 2.674 12.526 0.003 0.007 -0.006 0.000
1645 4 0.942 0.962 12.843 0.001 -0.000 -0.003 -0.000
1646 4 0.601 2.970 14.259 0.002 0.000 0.012 0.000
1647 4 2.844 0.344 14.632 0.009 0.006 -0.009 0.000
1648 4 2.802 2.610 12.358 -0.008 0.002 -0.002 0.000
1649 4 4.387 0.789 12.423 0.003 -0.001 0.004 -0.000
1650 4 4.362 2.655 14.508 0.003 -0.006 0.010 0.000
1651 4 6.568 0.845 14.382 -0.006 -0.002 -0.003 0.000
1652 4 6.498 2.793 12.425 -0.004 -0.008 0.009 0.000
1653 4 8.207 1.187 12.090 -0.007 -0.006 -0.002 -0.000
1654 4 8.517 2.727 14.267 0.004 -0.010 -0.004 0.000
1655 4 10.119 1.385 13.727 -0.002 0.001 -0.001 -0.000
1656 4 10.032 2.985 11.522 0.007 -0.012 0.001 0.000
1657 4 12.215 0.959 12.267 -0.002 -0.011 -0.003 -0.000
1658 4 12.300 2.768 14.183 0.008 0.000 0.008 0.000
1659 4 14.393 0.769 14.242 0.002 -0.001 -0.018 -0.000
1660 4 14.112 2.784 12.130 -0.006 -0.004 0.000 0.000
1683 4 -1.138 4.686 14.372 0.005 -0.003 -0.001 -0.000
1684 4 -1.428 6.589 12.773 0.005 0.005 -0.001 -0.000
1685 4 0.523 4.851 12.333 -0.003 -0.002 -0.001 -0.000
1686 4 0.477 6.320 14.458 0.008 0.010 -0.004 -0.000
1687 4 2.621 4.466 14.478 -0.008 -0.005 -0.003 -0.000
1688 4 2.483 6.246 12.335 0.002 0.016 -0.003 0.000
1689 4 4.497 4.295 12.049 -0.003 0.003 -0.001 -0.000
1690 4 4.702 6.782 14.805 -0.002 0.008 0.006 0.000
1691 4 6.440 4.507 14.404 0.003 -0.003 0.004 -0.000
1692 4 6.213 6.793 12.719 0.000 -0.002 -0.011 0.000
1693 4 8.338 4.654 12.158 -0.012 0.002 -0.005 -0.000
1694 4 8.343 6.600 14.195 -0.011 0.002 0.003 0.000
1695 4 10.311 4.392 13.817 -0.006 0.005 -0.003 -0.000
1696 4 10.020 6.409 11.966 0.002 -0.012 0.006 0.000
1697 4 11.970 4.329 11.916 0.007 -0.005 -0.000 -0.000
1698 4 11.992 6.164 13.945 -0.010 0.004 -0.001 0.000
1699 4 14.129 4.841 13.690 0.003 0.001 -0.005 0.000
1700 4 13.750 6.513 11.922 0.001 0.007 0.003 0.000
1723 4 -1.353 8.071 14.793 -0.005 -0.000 0.001 0.000
1724 4 -1.039 9.868 12.795 0.000 0.007 -0.007 0.000
1725 4 0.688 8.055 12.714 -0.002 -0.005 -0.001 0.000
1726 4 0.438 10.310 14.626 -0.005 0.003 -0.001 -0.000
1727 4 2.466 8.483 14.490 0.003 -0.005 -0.007 -0.000
1728 4 2.093 10.289 12.438 0.003 0.007 -0.001 0.000
1729 4 4.293 8.036 12.830 0.005 0.002 -0.003 -0.000
1730 4 4.798 10.022 14.680 -0.003 -0.005 0.001 0.000
1731 4 6.826 8.372 14.270 0.000 0.006 0.008 -0.000
1732 4 6.172 10.064 12.557 -0.003 0.004 0.008 0.000
1733 4 8.477 8.364 12.247 0.007 0.005 -0.001 0.000
1734 4 8.840 10.319 14.156 -0.004 0.005 -0.002 -0.000
1735 4 10.468 8.002 14.226 -0.011 -0.006 -0.001 -0.000
1736 4 10.393 9.878 12.212 0.005 -0.006 0.002 0.000
1737 4 12.549 8.410 12.139 0.002 -0.000 -0.003 0.000
1738 4 11.780 10.266 14.100 0.001 -0.003 0.006 0.000
1739 4 13.800 8.277 14.334 0.001 -0.011 0.010 -0.000
1740 4 13.997 10.173 12.258 0.001 0.004 0.003 -0.000
1763 4 -1.308 12.032 14.605 -0.002 0.006 -0.003 0.000
1764 4 -1.572 13.793 12.714 -0.001 0.001 -0.005 0.000
1765 4 0.398 12.437 12.709 0.007 -0.003 0.001 -0.000
1766 4 0.493 14.045 14.688 0.010 -0.002 0.002 -0.000
1767 4 2.253 11.850 14.536 -0.003 0.006 0.003 0.000
1768 4 2.651 13.572 12.911 0.005 -0.002 -0.005 -0.000
1769 4 4.346 12.026 12.741 -0.012 0.006 -0.005 -0.000
1770 4 4.658 13.906 14.411 0.002 0.000 0.001 0.000
1771 4 6.512 12.354 14.343 -0.007 -0.006 0.006 -0.000
1772 4 6.270 14.042 12.111 -0.002 -0.013 0.002 0.000
1773 4 8.354 12.022 12.425 -0.002 0.013 -0.002 -0.000
1774 4 7.974 14.151 14.014 0.002 0.005 0.001 -0.000
1775 4 10.349 12.217 14.229 0.005 0.003 -0.000 -0.000
1776 4 10.071 14.224 12.534 0.004 -0.006 -0.001 0.000
1777 4 11.845 11.900 12.219 0.002 -0.006 -0.005 0.000
1778 4 12.214 14.213 14.006 -0.001 0.007 -0.004 -0.000
1779 4 13.989 12.100 13.937 0.011 -0.005 0.000 0.000
1780 4 14.190 13.953 12.133 0.008 -0.000 -0.000 0.000
2004 4 -0.975 -1.113 16.433 -0.002 0.000 0.000 -0.000
2006 4 0.757 -0.594 18.350 -0.001 -0.003 0.002 -0.000
2008 4 2.605 -1.168 16.867 -0.001 0.001 0.004 -0.000
2010 4 4.540 -1.057 18.601 0.002 0.012 0.007 -0.000
2012 4 6.541 -1.306 16.541 0.002 0.002 -0.006 0.000
2014 4 8.365 -0.876 18.735 -0.002 0.005 0.004 -0.000
2016 4 10.637 -0.840 15.930 -0.003 -0.008 -0.009 -0.000
2018 4 12.559 -1.197 18.064 -0.003 -0.000 -0.002 0.000
2020 4 14.170 -1.315 15.979 0.006 0.000 -0.011 0.000
2043 4 -1.081 0.951 18.359 0.006 0.004 -0.004 0.000
2044 4 -1.095 2.697 16.370 -0.001 0.008 0.003 -0.000
2045 4 0.791 0.897 16.135 0.005 -0.005 0.002 0.000
2046 4 0.839 2.821 18.299 0.002 -0.004 -0.015 0.000
2047 4 2.722 1.056 18.173 0.003 0.001 -0.005 0.000
2048 4 2.636 2.529 16.262 0.004 -0.002 0.012 -0.000
2049 4 4.504 0.915 16.269 -0.004 0.007 -0.000 0.000
2050 4 4.491 2.907 18.150 0.003 -0.005 -0.002 0.000
2051 4 6.472 1.059 17.919 -0.002 0.009 -0.000 -0.000
2052 4 6.734 2.772 15.986 -0.003 0.007 -0.007 -0.000
2053 4 8.683 0.662 16.341 -0.005 0.001 -0.004 -0.000
2054 4 8.369 2.859 17.925 -0.006 0.005 -0.011 0.000
2055 4 10.514 0.653 17.987 0.004 0.011 0.004 -0.000
2056 4 10.754 2.402 16.182 0.004 0.013 -0.003 -0.000
2057 4 12.801 0.393 16.004 0.007 0.002 -0.005 0.000
2058 4 12.504 2.696 17.952 0.000 -0.002 0.005 0.000
2059 4 14.112 1.103 17.908 0.000 -0.004 -0.000 -0.000
2060 4 14.140 3.078 16.140 0.004 0.015 -0.007 -0.000
2083 4 -1.062 4.533 18.342 0.013 0.000 -0.003 -0.000
2084 4 -1.037 6.416 16.575 -0.006 0.006 0.007 -0.000
2085 4 1.224 4.611 16.401 -0.017 -0.002 0.005 0.000
2086 4 0.735 6.704 18.255 0.013 0.001 0.004 -0.000
2087 4 3.285 4.748 18.151 0.003 0.008 0.001 -0.000
2088 4 2.682 6.607 16.754 -0.005 0.007 0.005 -0.000
2089 4 4.638 4.280 15.957 -0.014 -0.008 -0.014 0.000
2090 4 4.810 7.090 18.217 0.006 0.005 -0.004 0.000
2091 4 6.484 4.401 17.958 0.007 -0.006 -0.009 -0.000
2092 4 7.007 6.536 16.166 -0.011 -0.009 0.004 -0.000
2093 4 8.532 4.802 16.123 0.010 0.003 -0.003 -0.000
2094 4 8.656 5.905 18.243 0.006 -0.002 0.000 -0.000
2095 4 10.437 4.218 17.775 -0.003 -0.000 0.004 -0.000
2096 4 10.103 6.755 16.569 0.006 0.003 0.011 -0.000
2097 4 12.108 4.739 15.929 0.003 0.001 0.009 -0.000
2098 4 12.230 6.575 18.200 -0.010 0.006 -0.010 0.000
2099 4 14.290 4.694 18.080 0.001 -0.000 0.004 -0.000
2100 4 13.980 6.429 15.961 -0.004 -0.006 -0.019 -0.000
2123 4 -1.231 8.629 18.528 -0.006 0.011 -0.003 0.000
2124 4 -1.435 10.862 16.880 -0.003 0.012 0.001 -0.000
2125 4 0.543 8.568 16.440 0.007 0.004 0.000 0.000
2126 4 0.978 10.333 18.559 -0.001 0.004 0.006 -0.000
2127 4 2.722 8.541 18.243 0.002 0.002 0.008 -0.000
2128 4 2.809 9.881 16.244 0.002 -0.003 -0.007 -0.000
2129 4 4.858 8.402 16.256 0.007 0.012 0.003 -0.000
2130 4 4.998 10.149 18.086 -0.000 -0.000 -0.001 0.000
2131 4 6.848 8.313 18.413 -0.008 -0.003 0.016 -0.000
2132 4 7.009 10.029 16.163 0.011 -0.005 0.002 -0.000
2133 4 8.721 8.679 16.358 -0.002 -0.003 0.000 0.000
2134 4 8.358 10.328 17.941 0.002 -0.001 0.007 -0.000
2135 4 10.024 8.214 18.529 0.004 0.000 -0.003 -0.000
2136 4 10.100 11.040 16.555 -0.009 0.012 0.004 -0.000
2137 4 12.106 8.287 16.522 -0.005 -0.001 0.005 0.000
2138 4 11.840 10.100 18.453 -0.001 -0.006 -0.002 0.000
2139 4 14.110 8.883 18.197 0.000 -0.001 -0.007 -0.000
2140 4 13.637 10.478 15.928 -0.003 0.007 -0.008 -0.000
2163 4 -1.201 12.734 18.014 0.006 0.002 -0.009 0.000
2164 4 -1.381 14.140 16.152 0.001 0.003 0.000 -0.000
2165 4 0.840 11.989 16.543 -0.005 0.011 -0.000 -0.000
2166 4 0.837 14.084 17.714 -0.003 0.000 -0.000 -0.000
2167 4 3.107 11.819 18.268 -0.004 0.005 0.005 -0.000
2168 4 2.855 13.561 16.017 0.003 -0.007 0.010 -0.000
2169 4 4.936 12.181 16.392 0.001 -0.002 0.008 -0.000
2170 4 4.695 13.714 18.210 -0.007 0.003 -0.005 0.000
2171 4 6.761 11.911 18.348 -0.001 -0.002 0.006 -0.000
2172 4 6.682 13.840 16.571 -0.003 -0.013 0.001 -0.000
2173 4 8.187 12.118 16.109 0.001 0.009 0.003 0.000
2174 4 8.441 14.114 18.318 0.010 -0.005 -0.009 0.000
2175 4 10.585 12.357 18.615 -0.007 -0.003 0.002 -0.000
2176 4 10.203 13.728 16.259 -0.015 0.008 0.002 -0.000
2177 4 12.067 12.828 15.974 0.005 -0.001 -0.009 0.000
2178 4 12.470 14.084 17.980 0.001 -0.000 -0.011 -0.000
2179 4 13.802 11.918 18.005 -0.010 -0.002 -0.002 -0.000
2180 4 14.227 14.193 15.913 0.004 0.003 0.011 0.000
2404 4 -1.099 -1.095 20.026 -0.002 -0.004 -0.006 0.000
2408 4 2.761 -0.937 20.261 -0.003 0.007 0.009 0.000
2412 4 6.570 -0.979 20.725 0.008 0.006 0.006 0.000
2416 4 10.828 -0.992 19.983 -0.007 -0.013 0.001 0.000
2420 4 14.722 -0.945 19.642 0.002 -0.005 -0.005 0.000
2443 4 -0.816 1.035 21.714 -0.008 -0.006 -0.003 -0.000
2444 4 -1.212 2.495 19.934 0.015 0.000 -0.004 0.000
2445 4 1.016 0.841 20.227 0.001 0.005 0.004 -0.000
2448 4 2.736 2.519 20.232 0.002 0.005 -0.004 -0.000
2449 4 4.376 0.935 20.084 0.000 -0.003 0.004 0.000
2452 4 6.682 2.798 19.882 -0.006 0.006 0.001 -0.000
2453 4 8.906 1.282 19.864 0.006 -0.004 0.005 0.000
2456 4 10.841 2.550 19.770 -0.004 -0.001 0.003 0.000
2457 4 12.801 0.584 19.749 0.001 -0.005 0.000 -0.000
2460 4 14.427 2.879 19.666 0.001 0.008 0.012 0.000
2484 4 -0.936 6.672 20.150 0.006 -0.003 -0.002 0.000
2485 4 1.230 4.565 19.838 0.011 0.005 0.002 0.000
2488 4 2.870 7.077 20.166 -0.001 0.004 -0.004 -0.000
2489 4 4.646 5.180 20.187 0.004 0.001 -0.001 0.000
2492 4 6.776 6.291 20.036 0.001 0.002 0.001 -0.000
2493 4 8.817 4.192 20.177 -0.007 0.003 -0.010 0.000
2496 4 10.350 6.332 20.139 -0.006 -0.007 0.007 -0.000
2497 4 12.456 4.537 19.798 -0.009 0.005 -0.000 -0.000
2500 4 14.102 6.359 20.123 0.002 -0.001 -0.004 0.000
2524 4 -1.040 10.583 20.135 0.002 -0.003 0.005 -0.000
2525 4 0.811 8.406 20.402 0.000 0.008 -0.001 -0.000
2528 4 2.702 10.442 20.288 -0.004 0.009 -0.007 -0.000
2529 4 5.022 8.735 20.213 0.002 0.002 0.003 -0.000
2532 4 7.056 10.339 20.371 0.004 -0.003 0.008 0.000
2533 4 8.278 8.276 20.591 0.001 0.010 0.005 0.000
2536 4 10.114 10.140 20.423 0.009 -0.000 -0.009 -0.000
2537 4 12.122 8.043 19.937 -0.001 -0.010 -0.000 -0.000
2540 4 14.329 10.648 19.962 -0.005 0.000 0.000 0.000
2564 4 -1.013 14.039 19.997 0.005 0.002 -0.006 0.000
2565 4 0.727 12.719 19.756 0.003 -0.006 -0.015 -0.000
2568 4 2.888 14.609 20.125 -0.007 0.004 0.004 -0.000
2569 4 4.345 12.258 20.406 -0.004 0.006 0.010 0.000
2572 4 6.509 14.336 19.915 -0.018 0.004 -0.003 -0.000
2573 4 8.481 12.424 20.130 -0.002 0.000 -0.000 0.000
2576 4 10.408 14.294 20.081 -0.000 -0.002 0.006 0.000
2577 4 12.434 11.955 20.490 0.008 -0.011 -0.005 -0.000
2580 4 14.245 14.105 20.129 0.001 0.004 -0.001 0.000
2458 4 12.799 2.766 21.730 0.006 -0.002 -0.010 0.000
2454 4 8.611 2.424 22.068 0.002 0.013 0.011 -0.000
2538 4 12.425 9.956 21.896 -0.002 -0.002 -0.005 0.000
2578 4 12.350 14.378 21.885 0.008 0.006 -0.005 0.000
2530 4 4.695 10.628 22.219 -0.011 -0.009 0.005 0.000
2523 4 -1.388 8.458 21.719 -0.004 0.005 -0.001 0.000
2406 4 0.796 -1.124 21.928 0.007 0.003 -0.007 -0.000
2447 4 2.542 0.760 22.265 0.006 0.001 -0.003 0.000
2494 4 8.217 5.838 22.149 0.005 0.002 -0.007 -0.000
2490 4 5.053 6.828 21.958 0.003 -0.001 0.000 0.000
2567 4 2.634 12.581 21.944 -0.002 0.003 -0.001 0.000
2527 4 2.917 8.503 22.216 -0.014 0.002 -0.009 0.000
2570 4 4.781 13.969 21.921 0.001 -0.004 0.002 0.000
2487 4 2.683 4.558 21.998 -0.007 -0.005 -0.003 -0.000
2575 4 10.488 12.163 21.680 0.004 -0.001 -0.003 0.000
2499 4 14.317 5.055 22.058 0.004 0.013 0.004 0.000
2495 4 10.488 4.138 22.041 -0.005 -0.001 -0.002 0.000
2579 4 14.404 12.188 22.144 -0.007 0.007 0.003 0.000
2574 4 8.436 14.308 21.657 -0.010 -0.003 0.015 -0.000
2571 4 6.910 12.327 22.081 0.002 0.006 0.000 0.000
2455 4 10.855 1.120 21.782 0.001 0.003 -0.006 0.000
2539 4 14.094 8.011 21.847 0.004 -0.007 -0.005 0.000
2535 4 10.289 8.298 22.257 -0.003 -0.002 0.010 -0.000
2450 4 4.574 2.683 22.170 0.007 -0.002 0.006 -0.000
2418 4 12.681 -1.144 21.920 -0.005 -0.009 0.012 -0.000
2498 4 12.175 6.297 21.819 -0.002 -0.001 -0.002 0.000
2410 4 4.421 -0.794 21.971 0.001 -0.012 -0.000 -0.000
2491 4 5.964 4.564 22.176 -0.009 -0.007 0.004 0.000
1017 4 12.034 15.773 4.726 -0.000 -0.003 -0.011 -0.000
1015 4 10.106 16.004 6.408 -0.006 0.001 0.001 0.000
2409 4 4.607 -2.901 20.430 0.002 0.003 0.002 0.000
2563 4 -1.318 12.470 21.696 0.002 -0.008 -0.009 -0.000
2483 4 -1.410 4.927 21.776 0.002 -0.004 -0.006 -0.000
1241 4 -3.108 0.839 8.831 -0.003 0.001 -0.001 -0.000
2219 4 13.963 15.903 18.301 0.003 -0.000 -0.008 -0.000
1407 4 2.181 15.879 10.883 0.000 -0.004 -0.002 -0.000
2209 4 4.448 15.762 16.043 0.005 0.005 -0.002 0.000
2003 4 -0.856 -3.037 18.349 0.002 -0.002 0.001 -0.000
1217 4 11.819 -2.785 8.383 0.000 -0.004 0.003 0.000
2459 4 14.274 0.733 21.692 0.012 0.010 -0.001 0.000
2526 4 0.785 10.393 21.984 -0.004 -0.000 0.001 0.000
2486 4 0.792 6.150 21.983 0.003 -0.002 -0.002 -0.000
1819 4 13.730 15.901 13.761 0.004 -0.003 0.006 0.000
1011 4 6.357 15.710 6.398 -0.001 0.002 -0.003 0.000
1417 4 12.068 15.744 8.500 -0.010 0.002 0.001 0.000
1219 4 14.532 -2.808 10.574 -0.005 -0.003 0.001 -0.000
2415 4 10.622 -3.037 21.924 0.000 -0.015 0.003 0.000
2005 4 0.872 -2.856 16.345 -0.009 -0.007 -0.005 -0.000
1019 4 13.896 15.619 6.692 -0.015 0.001 -0.003 0.000
2451 4 6.411 1.054 22.110 -0.003 0.002 0.007 0.000
2041 4 -2.923 1.057 16.175 0.007 0.006 0.013 0.000
2017 4 11.845 -3.022 16.037 -0.009 0.001 -0.003 0.000
2181 4 15.793 12.395 15.779 0.000 0.005 -0.004 -0.000
1007 4 2.341 15.673 6.565 0.007 0.001 -0.014 -0.000
1413 4 8.197 15.933 8.431 -0.003 0.009 -0.010 0.000
1807 4 2.363 15.809 14.384 0.004 0.006 0.003 -0.000
1203 4 -1.040 -2.859 10.664 -0.003 0.002 0.002 -0.000
2405 4 0.745 -3.004 20.127 -0.014 -0.004 -0.000 -0.000
100 4 13.471 6.554 -2.408 0.000 -0.004 0.004 0.000
862 4 16.073 2.812 6.495 0.001 0.001 -0.013 0.000
541 4 16.026 8.143 0.982 0.007 0.005 -0.010 -0.000
2042 4 -3.195 2.983 18.172 -0.014 -0.007 -0.003 -0.000
1602 4 -2.975 -0.908 14.580 -0.013 0.004 0.000 0.000
82 4 -2.914 6.846 -0.731 0.006 -0.004 0.002 -0.000
1009 4 4.558 15.911 4.546 -0.005 0.006 0.011 -0.000
2207 4 2.695 15.980 17.891 0.004 0.007 -0.006 -0.000
815 4 10.054 -2.915 6.617 0.000 -0.004 0.001 0.000
45 4 0.686 0.407 -2.875 0.002 -0.003 -0.007 0.000
1782 4 15.705 13.937 13.837 0.003 0.000 0.002 -0.000
1382 4 15.578 14.204 10.073 0.005 0.013 -0.007 -0.000
2121 4 -2.951 8.953 16.609 -0.005 0.009 0.004 0.000
1617 4 12.323 -2.849 12.332 0.006 -0.002 0.001 0.000
1205 4 0.486 -3.002 8.551 -0.002 -0.006 -0.005 -0.000
2413 4 8.733 -2.760 20.581 0.004 0.004 0.008 -0.000
2414 4 8.796 -0.385 21.864 0.007 0.000 -0.012 0.000
2566 4 0.442 14.319 22.289 -0.011 -0.004 0.003 0.000
164 4 -1.401 14.609 -2.098 0.004 0.001 0.000 0.000
2141 4 15.334 8.492 16.215 0.007 -0.002 0.003 -0.000
2221 4 15.865 15.992 16.264 0.006 -0.001 0.007 -0.000
1403 4 -1.349 15.453 10.851 0.006 -0.007 -0.000 -0.000
605 4 1.303 15.674 1.010 -0.004 0.009 0.003 -0.000
803 4 -1.378 -2.720 6.544 -0.006 0.001 -0.001 -0.000
1615 4 10.245 -3.085 14.136 0.004 0.000 -0.010 0.000
2015 4 9.753 -2.937 18.160 0.002 0.002 -0.001 -0.000
2013 4 8.874 -2.410 16.129 0.004 0.009 0.005 -0.000