ITEM: TIMESTEP
43000
ITEM: NUMBER OF ATOMS
32000
ITEM: BOX BOUNDS pp pp pp
-2.882514 73.362514
-3.119517 73.599517
-2.997560 73.477560
ITEM: ATOMS id type x y z vx vy vz q
6 4 1.167 -1.290 -0.933 0.003 0.008 -0.002 0.000
10 4 4.894 -1.409 -0.843 -0.000 -0.010 0.008 0.000
14 4 9.074 -1.546 -1.078 0.001 -0.004 0.009 0.000
18 4 12.087 -1.151 -1.070 -0.002 0.007 -0.003 0.000
43 4 -0.782 0.677 -0.770 -0.006 -0.008 0.003 0.000
46 4 1.080 2.295 -0.959 -0.000 0.011 0.004 0.000
47 4 2.972 0.577 -1.013 0.004 0.006 0.016 0.000
50 4 5.182 2.673 -0.987 -0.000 0.003 0.009 0.000
51 4 6.742 0.412 -1.016 0.011 0.005 -0.005 0.000
54 4 8.391 2.260 -0.829 -0.007 -0.011 0.005 0.000
55 4 10.611 0.712 -1.072 -0.002 -0.004 -0.001 0.000
58 4 12.251 2.500 -0.897 0.003 0.017 -0.004 0.000
59 4 13.773 0.690 -0.854 0.009 -0.001 0.002 0.000
83 4 -1.116 4.592 -0.958 0.014 0.008 -0.006 0.000
86 4 0.708 6.255 -1.075 0.001 0.001 -0.002 -0.000
87 4 3.073 4.331 -0.914 0.001 -0.002 -0.004 -0.000
90 4 4.796 6.728 -1.173 -0.001 -0.002 0.002 -0.000
91 4 7.044 4.664 -0.848 -0.009 0.005 0.004 0.000
94 4 8.765 6.385 -0.764 -0.007 0.004 -0.002 0.000
95 4 10.342 4.450 -0.927 0.005 -0.008 0.002 -0.000
98 4 12.462 6.020 -1.347 0.007 -0.001 -0.006 -0.000
99 4 14.053 4.539 -0.859 0.002 0.009 -0.003 -0.000
123 4 -1.177 8.137 -1.042 0.003 0.001 0.004 -0.000
126 4 0.533 10.037 -0.861 -0.007 -0.003 0.005 -0.000
127 4 2.666 8.573 -1.039 0.007 0.004 0.012 -0.000
130 4 4.661 10.349 -1.245 0.001 0.003 0.001 -0.000
131 4 6.719 8.531 -1.058 -0.015 -0.012 -0.005 0.000
134 4 8.518 10.376 -1.179 0.011 -0.001 -0.004 0.000
135 4 10.605 8.394 -1.343 -0.001 -0.002 -0.005 -0.000
138 4 12.711 10.418 -1.363 -0.004 0.001 -0.007 0.000
139 4 14.307 8.171 -1.250 0.013 0.002 0.004 0.000
163 4 -0.916 12.494 -0.823 -0.003 -0.008 0.001 0.000
166 4 0.800 13.722 -0.932 -0.007 -0.001 -0.003 -0.000
167 4 2.587 11.922 -0.661 -0.001 0.002 0.002 -0.000
170 4 4.550 13.887 -0.906 0.000 -0.000 -0.005 -0.000
171 4 6.635 11.892 -0.839 0.008 0.006 0.008 -0.000
174 4 8.570 13.530 -1.046 0.003 -0.009 -0.001 -0.000
175 4 10.502 11.875 -0.846 -0.006 -0.004 0.003 0.000
178 4 12.138 14.109 -1.136 0.005 -0.009 0.001 -0.000
179 4 14.319 12.353 -1.002 -0.003 0.003 0.008 0.000
404 4 -0.705 -1.071 0.986 -0.003 0.007 -0.007 0.000
406 4 1.167 -1.433 2.789 -0.001 0.004 -0.003 -0.000
408 4 2.921 -1.507 1.010 -0.000 -0.001 -0.006 0.000
410 4 4.824 -1.506 2.833 0.009 -0.004 -0.007 0.000
412 4 7.089 -1.419 0.976 0.000 -0.003 0.004 0.000
414 4 8.373 -1.819 3.077 0.002 -0.004 -0.010 -0.000
416 4 10.249 -1.566 1.317 0.006 -0.007 -0.004 -0.000
418 4 12.414 -1.381 2.710 0.005 0.020 -0.000 -0.000
420 4 14.031 -1.262 0.700 0.006 -0.009 -0.008 -0.000
443 4 -0.823 0.792 2.822 -0.007 0.007 -0.003 0.000
444 4 -0.848 2.748 1.260 -0.003 0.001 -0.007 0.000
445 4 1.190 0.596 0.951 0.005 0.003 -0.002 0.000
446 4 0.882 2.445 2.969 -0.004 0.010 -0.003 0.000
447 4 2.968 0.674 2.912 -0.008 -0.011 0.003 0.000
448 4 3.157 2.373 0.674 0.007 -0.012 -0.001 0.000
449 4 5.084 0.641 0.899 -0.007 0.002 -0.003 0.000
450 4 4.697 2.632 2.798 -0.007 -0.003 0.002 0.000
451 4 6.437 0.433 2.905 0.004 0.004 -0.001 0.000
452 4 6.812 2.408 0.767 -0.000 -0.008 0.004 0.000
453 4 8.801 0.509 0.963 0.000 -0.004 -0.005 -0.000
454 4 8.476 2.712 2.681 0.012 -0.001 -0.000 0.000
455 4 10.074 0.487 3.070 -0.004 -0.007 -0.001 -0.000
456 4 10.543 2.673 1.045 -0.009 -0.002 -0.002 -0.000
457 4 12.241 0.605 1.017 -0.003 0.001 -0.006 -0.000
458 4 11.787 2.500 2.950 -0.002 0.005 -0.004 -0.000
459 4 14.138 0.452 2.389 -0.010 -0.007 0.001 -0.000
460 4 13.770 2.662 1.034 0.002 0.006 -0.005 0.000
483 4 -0.881 4.710 2.903 0.001 0.008 -0.005 0.000
484 4 -1.217 6.479 0.861 0.003 0.000 0.012 0.000
485 4 1.210 3.843 0.888 -0.003 0.011 -0.002 0.000
486 4 1.174 6.138 2.570 0.006 -0.005 0.004 0.000
487 4 3.334 4.322 2.410 -0.002 0.001 0.001 0.000
488 4 3.035 6.571 0.788 -0.001 0.009 -0.007 -0.000
489 4 5.203 4.515 0.639 0.011 -0.003 -0.005 0.000
490 4 4.781 6.399 2.844 -0.007 0.006 -0.001 0.000
491 4 6.687 4.687 2.885 -0.004 -0.002 0.011 0.000
492 4 6.571 6.646 0.641 0.005 0.005 -0.002 0.000
493 4 8.777 4.357 1.122 0.006 -0.000 -0.007 0.000
494 4 8.396 6.594 2.498 0.008 -0.002 -0.006 0.000
495 4 10.493 4.823 2.927 0.008 -0.001 0.013 0.000
496 4 10.829 6.922 0.944 -0.006 0.005 0.001 0.000
497 4 12.209 4.465 0.757 0.008 0.008 0.006 0.000
498 4 12.471 6.279 2.815 -0.002 -0.006 0.007 0.000
499 4 14.030 4.543 2.819 -0.002 0.005 -0.001 0.000
500 4 14.263 6.227 0.756 0.008 -0.006 -0.001 0.000
523 4 -0.554 7.562 3.243 -0.008 -0.005 0.011 0.000
524 4 -1.047 9.550 1.260 0.017 0.002 -0.011 -0.000
525 4 0.575 8.134 1.072 0.003 -0.006 0.006 -0.000
526 4 0.925 9.859 2.857 -0.013 -0.007 -0.005 -0.000
527 4 2.718 8.013 2.612 -0.004 -0.001 0.003 -0.000
528 4 2.774 10.063 0.850 -0.004 -0.000 0.004 -0.000
529 4 4.692 8.453 1.001 -0.001 0.013 0.016 0.000
530 4 4.342 10.053 2.789 0.007 0.005 0.006 0.000
531 4 6.656 8.511 2.639 0.005 -0.010 0.002 0.000
532 4 6.305 10.342 0.869 0.002 -0.006 -0.005 0.000
533 4 8.406 8.407 0.814 -0.000 0.000 0.003 0.000
534 4 9.001 9.957 2.600 0.002 0.002 0.003 0.000
535 4 10.718 7.991 2.882 -0.002 0.004 -0.006 0.000
536 4 10.720 9.751 0.853 0.000 0.001 -0.008 0.000
537 4 12.722 8.182 0.464 0.004 -0.002 0.003 0.000
538 4 11.973 9.846 2.696 0.001 0.005 -0.002 0.000
539 4 14.311 8.235 2.831 0.002 -0.005 0.004 0.000
540 4 14.033 10.234 1.132 0.000 -0.001 0.005 0.000
563 4 -0.548 11.965 2.870 -0.004 -0.001 0.012 -0.000
564 4 -0.684 14.117 1.230 -0.006 -0.010 -0.008 -0.000
565 4 0.181 11.655 0.920 -0.004 0.001 -0.004 -0.000
566 4 1.131 13.996 2.750 -0.002 0.009 0.012 0.000
567 4 2.997 12.196 2.663 0.005 0.003 0.001 0.000
568 4 2.696 14.117 0.669 -0.012 0.002 -0.002 0.000
569 4 4.455 11.805 0.723 -0.010 -0.010 -0.004 -0.000
570 4 4.996 14.085 2.160 0.005 0.007 -0.005 0.000
571 4 6.563 11.821 2.585 -0.011 0.008 -0.003 0.000
572 4 6.763 14.142 0.540 -0.000 0.011 0.003 0.000
573 4 8.581 11.766 0.707 -0.003 -0.003 0.003 0.000
574 4 8.652 14.013 2.549 0.005 0.008 -0.004 0.000
575 4 10.711 11.937 2.366 0.000 0.006 0.009 0.000
576 4 10.364 13.980 0.782 0.009 0.003 -0.009 -0.000
577 4 12.369 12.078 0.800 0.002 0.002 -0.003 0.000
578 4 11.768 14.399 2.417 0.001 -0.006 -0.000 -0.000
579 4 14.024 12.062 2.496 0.005 -0.009 0.006 -0.000
580 4 13.768 14.108 1.041 -0.010 -0.005 0.009 -0.000
804 4 -1.202 -1.312 5.180 -0.000 0.002 0.004 -0.000
806 4 0.946 -1.388 6.493 -0.003 -0.009 0.004 -0.000
808 4 2.968 -1.343 4.682 -0.001 0.001 -0.005 0.000
810 4 4.961 -1.662 6.823 -0.004 0.001 -0.006 0.000
812 4 6.727 -1.338 4.875 -0.010 -0.006 0.015 0.000
814 4 8.556 -1.032 6.850 0.003 -0.001 -0.004 0.000
816 4 10.032 -1.272 4.875 0.005 -0.003 -0.001 -0.000
818 4 12.148 -1.031 6.716 -0.002 0.003 -0.003 -0.000
820 4 14.357 -1.308 4.533 -0.002 0.014 0.002 -0.000
843 4 -0.831 0.464 6.819 0.010 -0.012 -0.000 -0.000
844 4 -0.997 2.545 4.935 -0.008 -0.000 0.000 0.000
845 4 0.707 0.441 4.842 -0.004 -0.005 -0.003 0.000
846 4 0.723 2.396 6.462 -0.002 0.008 0.007 0.000
847 4 3.186 0.037 6.774 0.001 -0.017 -0.003 0.000
848 4 2.847 2.222 4.769 0.000 -0.001 0.014 0.000
849 4 4.575 0.408 4.602 -0.006 -0.008 -0.006 0.000
850 4 5.198 2.447 6.672 -0.007 0.002 0.002 0.000
851 4 6.294 0.535 6.497 -0.007 0.008 0.001 -0.000
852 4 6.485 2.488 4.402 -0.009 -0.008 0.003 0.000
853 4 8.206 0.588 4.763 -0.001 -0.002 0.001 -0.000
854 4 8.358 2.924 6.512 -0.000 0.003 0.011 0.000
855 4 10.375 1.125 6.623 -0.005 -0.001 0.001 -0.000
856 4 10.327 2.671 4.913 0.005 0.003 0.003 0.000
857 4 12.100 0.601 4.435 -0.005 0.013 -0.005 -0.000
858 4 12.292 2.682 6.275 0.002 0.006 -0.013 0.000
859 4 13.845 0.697 6.681 0.007 0.009 -0.004 0.000
860 4 13.964 2.347 4.458 -0.011 -0.003 -0.010 0.000
883 4 -0.632 4.476 6.696 -0.000 -0.003 0.004 0.000
884 4 -1.015 6.319 5.121 -0.002 -0.005 0.013 0.000
885 4 0.957 4.413 4.468 -0.001 0.008 0.006 0.000
886 4 0.843 6.398 6.981 -0.003 -0.006 -0.001 -0.000
887 4 2.765 4.432 6.334 0.005 -0.004 -0.002 -0.000
888 4 2.879 6.347 4.697 0.010 0.003 0.013 -0.000
889 4 4.513 4.429 4.575 0.001 -0.004 -0.003 0.000
890 4 4.433 6.673 6.640 0.001 -0.001 -0.000 -0.000
891 4 6.611 4.721 6.399 0.005 0.012 0.006 0.000
892 4 6.560 6.256 4.896 0.008 -0.001 -0.000 0.000
893 4 8.601 4.726 4.212 0.004 -0.009 -0.000 0.000
894 4 8.759 6.666 6.569 -0.004 0.003 0.004 0.000
895 4 10.388 4.603 6.348 -0.007 -0.001 0.004 0.000
896 4 10.221 6.672 4.900 0.008 -0.013 0.008 0.000
897 4 12.436 4.329 4.419 -0.010 -0.001 -0.006 0.000
898 4 12.157 6.422 6.780 0.003 0.000 0.007 0.000
899 4 14.026 4.450 6.234 -0.002 -0.012 -0.011 0.000
900 4 14.302 6.536 4.927 0.002 -0.004 0.004 -0.000
923 4 -0.991 8.366 7.087 0.005 0.001 -0.007 0.000
924 4 -0.971 10.057 4.853 -0.012 -0.002 -0.003 -0.000
925 4 0.980 8.458 4.730 -0.011 -0.002 -0.001 -0.000
926 4 0.911 10.373 6.463 0.003 -0.008 -0.004 -0.000
927 4 2.326 8.132 7.152 0.000 0.003 0.007 -0.000
928 4 2.844 10.086 4.885 0.005 -0.001 -0.009 -0.000
929 4 4.757 8.168 4.479 0.014 -0.008 0.003 0.000
930 4 4.802 10.304 6.600 0.001 -0.000 0.003 -0.000
931 4 6.422 8.293 6.523 0.000 -0.010 -0.001 -0.000
932 4 6.516 10.394 4.728 -0.006 0.015 -0.008 0.000
933 4 8.496 8.492 4.655 -0.005 -0.011 0.006 0.000
934 4 8.286 10.543 6.033 0.006 0.004 -0.007 -0.000
935 4 10.513 8.944 6.474 -0.002 -0.002 0.006 -0.000
936 4 10.360 10.633 4.607 0.004 -0.005 0.005 0.000
937 4 12.118 8.433 4.776 -0.003 0.010 -0.005 -0.000
938 4 12.766 10.836 6.531 -0.003 0.004 0.005 -0.000
939 4 14.192 8.335 6.609 -0.004 -0.002 -0.014 -0.000
940 4 14.075 10.118 4.463 -0.001 0.005 -0.004 -0.000
963 4 -0.834 12.513 6.725 0.006 -0.004 0.005 0.000
964 4 -1.136 14.119 4.586 -0.001 -0.002 -0.003 0.000
965 4 1.287 12.214 4.621 0.009 -0.003 -0.003 -0.000
966 4 0.294 14.446 6.632 -0.000 -0.007 -0.012 0.000
967 4 3.073 12.237 6.479 -0.007 -0.004 0.002 -0.000
968 4 3.075 14.133 4.272 0.013 0.000 -0.006 0.000
969 4 4.676 12.372 4.294 0.013 -0.002 -0.002 0.000
970 4 4.915 14.430 6.234 -0.011 0.011 -0.004 0.000
971 4 6.204 12.326 6.451 0.006 -0.002 0.004 0.000
972 4 6.442 13.907 4.302 0.002 0.006 -0.006 0.000
973 4 8.425 12.232 4.124 -0.009 -0.005 0.000 0.000
974 4 8.357 13.874 6.253 0.007 -0.007 0.000 0.000
975 4 10.463 12.283 6.541 0.005 0.000 0.001 -0.000
976 4 10.472 14.095 4.694 0.001 0.001 -0.002 -0.000
977 4 12.144 11.980 4.447 -0.004 -0.008 0.006 -0.000
978 4 12.255 13.949 6.503 -0.006 0.004 -0.002 -0.000
979 4 14.165 12.505 6.532 0.003 -0.006 0.005 -0.000
980 4 13.522 13.971 4.513 0.000 -0.005 0.000 -0.000
1204 4 -1.299 -1.216 8.056 0.007 0.012 0.003 -0.000
1206 4 0.284 -1.765 10.487 0.008 -0.012 0.002 0.000
1208 4 2.811 -1.289 8.977 0.005 0.000 -0.002 0.000
1210 4 5.003 -1.360 10.525 -0.001 -0.001 -0.001 0.000
1212 4 6.722 -1.464 8.505 0.016 -0.008 0.000 0.000
1214 4 8.247 -1.111 10.560 0.001 -0.004 0.011 -0.000
1216 4 10.032 -0.956 9.025 -0.007 0.004 0.002 0.000
1218 4 12.185 -0.522 10.575 -0.006 0.002 0.004 -0.000
1220 4 14.143 -1.008 8.505 0.005 -0.003 -0.007 0.000
1243 4 -1.301 0.584 10.502 0.001 0.004 -0.001 0.000
1244 4 -1.284 2.351 8.415 0.003 0.001 -0.002 -0.000
1245 4 1.123 0.957 8.734 -0.001 -0.007 -0.005 0.000
1246 4 0.777 2.827 10.363 0.016 -0.010 -0.009 -0.000
1247 4 3.215 0.834 10.488 0.001 -0.001 0.001 0.000
1248 4 3.062 2.901 8.264 -0.002 -0.000 0.008 -0.000
1249 4 4.884 0.486 8.611 -0.001 -0.003 0.001 0.000
1250 4 5.028 3.270 10.438 0.004 0.002 -0.002 -0.000
1251 4 6.444 1.221 10.507 -0.002 0.005 -0.012 -0.000
1252 4 6.696 3.019 8.291 0.005 -0.006 -0.000 -0.000
1253 4 8.116 1.011 8.485 0.005 0.010 0.011 -0.000
1254 4 8.112 3.100 10.507 0.001 0.003 0.011 -0.000
1255 4 10.298 1.176 10.698 0.006 0.001 -0.002 -0.000
1256 4 10.244 3.010 8.194 0.009 -0.001 -0.006 -0.000
1257 4 12.098 1.131 8.510 -0.004 -0.004 0.001 0.000
1258 4 12.290 2.748 10.195 -0.004 -0.012 0.005 -0.000
1259 4 14.264 1.136 10.050 -0.007 0.002 0.002 -0.000
1260 4 14.352 2.560 8.236 -0.001 0.001 -0.001 -0.000
1283 4 -1.320 4.277 10.317 0.000 -0.000 0.005 -0.000
1284 4 -1.314 6.397 9.017 0.005 -0.006 -0.011 -0.000
1285 4 0.863 4.276 8.546 -0.009 -0.011 -0.002 -0.000
1286 4 0.796 6.254 10.343 0.002 0.002 0.007 -0.000
1287 4 2.728 4.443 10.454 -0.006 -0.007 0.002 -0.000
1288 4 2.858 6.104 8.385 0.005 0.007 0.006 -0.000
1289 4 4.729 4.622 8.199 -0.002 -0.005 -0.010 -0.000
1290 4 4.605 6.322 10.475 0.002 0.008 -0.004 -0.000
1291 4 6.897 5.228 10.213 0.000 -0.003 0.004 -0.000
1292 4 6.585 6.734 8.127 -0.005 -0.002 0.000 -0.000
1293 4 8.868 5.005 8.217 -0.001 -0.000 -0.010 0.000
1294 4 8.734 6.859 10.065 -0.004 0.005 -0.010 0.000
1295 4 10.136 4.773 10.602 0.001 -0.001 -0.004 0.000
1296 4 10.555 6.551 8.579 -0.005 -0.008 -0.012 0.000
1297 4 12.472 4.403 8.584 -0.006 -0.007 -0.008 0.000
1298 4 12.253 6.371 10.106 0.007 0.006 -0.007 0.000
1299 4 14.023 4.601 10.231 0.007 -0.009 -0.001 -0.000
1300 4 14.214 6.612 8.317 -0.010 -0.005 0.002 -0.000
1323 4 -1.195 8.646 10.527 -0.004 0.003 0.002 -0.000
1324 4 -0.808 10.291 8.324 0.007 -0.004 -0.003 0.000
1325 4 0.912 8.523 8.679 0.010 -0.003 -0.006 -0.000
1326 4 0.790 10.216 10.230 -0.008 -0.003 -0.006 -0.000
1327 4 2.660 8.385 10.341 -0.003 0.000 0.015 -0.000
1328 4 3.098 10.409 8.205 0.004 0.004 0.003 -0.000
1329 4 4.447 8.055 8.545 0.001 -0.004 -0.004 -0.000
1330 4 4.662 10.319 10.205 -0.002 -0.001 -0.001 -0.000
1331 4 6.610 8.348 10.163 0.002 -0.009 -0.003 -0.000
1332 4 6.550 10.258 8.463 -0.007 0.005 -0.004 -0.000
1333 4 8.724 8.561 7.966 -0.004 0.006 0.004 0.000
1334 4 8.470 10.602 10.231 0.008 -0.006 0.006 -0.000
1335 4 10.343 8.817 10.468 -0.004 -0.007 0.004 -0.000
1336 4 10.531 10.515 8.453 0.011 0.001 -0.009 -0.000
1337 4 11.955 8.490 8.797 0.001 0.006 -0.006 -0.000
1338 4 12.569 10.217 10.709 -0.006 -0.010 -0.003 -0.000
1339 4 14.249 8.487 10.300 0.010 -0.000 0.007 -0.000
1340 4 13.996 10.296 8.663 -0.010 0.006 0.000 -0.000
1363 4 -0.793 12.133 10.149 0.010 -0.007 0.001 0.000
1364 4 -1.054 14.469 8.738 0.001 -0.006 0.005 0.000
1365 4 1.045 11.856 8.365 -0.002 0.004 -0.001 -0.000
1366 4 1.355 14.103 10.351 -0.001 0.007 0.002 0.000
1367 4 2.662 12.057 10.340 0.006 0.001 0.003 -0.000
1368 4 2.907 14.057 8.241 0.014 0.013 0.007 -0.000
1369 4 4.894 12.133 8.062 -0.004 -0.000 -0.011 -0.000
1370 4 4.433 13.604 10.266 0.010 0.006 0.005 0.000
1371 4 6.487 12.564 10.414 0.004 -0.004 0.001 0.000
1372 4 6.590 14.172 8.319 -0.002 -0.002 0.009 -0.000
1373 4 8.559 12.136 8.219 0.000 -0.000 0.010 -0.000
1374 4 8.262 14.084 10.157 0.006 0.003 0.005 -0.000
1375 4 10.209 12.655 10.170 -0.002 -0.001 -0.001 -0.000
1376 4 10.629 14.504 8.308 -0.003 0.003 0.008 -0.000
1377 4 12.145 12.338 8.290 -0.001 0.008 -0.001 -0.000
1378 4 12.549 14.403 10.512 0.002 0.003 0.002 -0.000
1379 4 14.128 12.312 10.412 0.007 0.000 -0.004 -0.000
1380 4 14.648 14.233 8.129 0.004 -0.005 -0.013 -0.000
1604 4 -0.770 -0.961 12.871 -0.004 -0.006 -0.009 0.000
1606 4 0.999 -1.251 14.358 -0.003 0.012 -0.004 0.000
1608 4 2.614 -1.328 12.584 -0.008 0.006 0.003 -0.000
1610 4 4.591 -1.148 14.694 -0.012 0.006 -0.003 0.000
1612 4 6.833 -0.924 12.622 -0.003 0.005 0.001 -0.000
1614 4 8.414 -1.255 14.490 -0.011 -0.002 0.004 -0.000
1616 4 10.259 -1.190 12.472 0.001 -0.005 -0.003 -0.000
1618 4 11.999 -0.880 13.900 0.009 0.010 -0.000 -0.000
1620 4 13.879 -1.069 12.269 0.009 0.005 0.015 -0.000
1643 4 -1.617 1.018 14.658 -0.002 -0.001 -0.005 0.000
1644 4 -1.113 2.547 12.311 0.000 0.001 -0.002 0.000
1645 4 1.095 0.600 12.100 0.007 -0.001 -0.015 0.000
1646 4 0.622 2.909 14.132 0.008 0.001 -0.000 0.000
1647 4 2.695 0.748 14.071 -0.002 -0.001 0.004 0.000
1648 4 3.180 2.719 11.996 0.004 0.002 0.006 -0.000
1649 4 4.689 0.797 12.601 -0.002 -0.002 0.001 0.000
1650 4 4.755 2.369 14.429 0.010 0.002 -0.009 0.000
1651 4 6.877 1.138 14.557 -0.007 0.001 -0.006 -0.000
1652 4 6.536 2.800 12.914 -0.009 0.003 -0.002 -0.000
1653 4 8.516 1.055 12.375 -0.001 -0.006 -0.003 -0.000
1654 4 8.357 2.980 14.506 0.004 -0.006 0.005 -0.000
1655 4 10.360 1.157 14.388 -0.001 -0.003 -0.000 -0.000
1656 4 10.162 2.931 12.605 -0.007 0.007 -0.003 -0.000
1657 4 12.171 1.227 12.355 -0.006 -0.003 0.004 -0.000
1658 4 12.541 2.662 14.404 0.003 0.011 -0.005 -0.000
1659 4 14.355 0.439 14.411 0.001 -0.003 0.002 -0.000
1660 4 13.886 2.705 11.878 -0.004 -0.005 0.001 -0.000
1683 4 -1.225 4.899 14.127 -0.014 0.002 0.013 -0.000
1684 4 -1.132 6.280 11.901 -0.001 0.002 -0.001 -0.000
1685 4 0.986 4.710 12.200 -0.000 -0.009 0.012 -0.000
1686 4 1.026 6.307 14.144 0.006 -0.002 0.002 -0.000
1687 4 2.728 4.275 14.162 -0.001 -0.006 0.004 -0.000
1688 4 2.745 6.425 12.391 0.003 0.009 -0.001 -0.000
1689 4 4.725 4.847 12.542 -0.001 -0.003 -0.014 -0.000
1690 4 4.660 6.544 14.144 -0.007 0.004 0.010 0.000
1691 4 6.504 4.763 14.706 0.010 0.003 -0.008 -0.000
1692 4 6.525 6.677 12.464 0.001 0.007 -0.007 0.000
1693 4 8.317 5.109 12.546 -0.012 0.007 -0.001 -0.000
1694 4 8.879 6.492 14.837 -0.000 0.004 0.001 -0.000
1695 4 10.913 4.625 14.281 0.013 -0.004 0.003 -0.000
1696 4 10.342 6.953 12.160 0.002 -0.001 -0.004 0.000
1697 4 12.167 4.578 11.970 -0.009 0.008 -0.001 -0.000
1698 4 12.411 6.564 14.237 -0.004 -0.005 -0.004 0.000
1699 4 14.466 4.631 14.349 0.014 0.005 0.005 0.000
1700 4 14.281 6.668 12.366 0.005 0.000 0.000 0.000
1723 4 -0.685 8.413 14.088 0.003 -0.000 0.002 -0.000
1724 4 -0.742 10.249 12.320 -0.011 -0.004 -0.006 -0.000
1725 4 0.759 8.278 12.009 0.001 0.006 -0.009 -0.000
1726 4 1.095 10.232 14.380 -0.003 -0.005 0.001 -0.000
1727 4 2.511 8.546 14.345 0.000 0.000 -0.004 -0.000
1728 4 2.560 10.226 12.189 0.011 0.008 0.006 -0.000
1729 4 4.418 8.088 12.300 -0.007 -0.003 0.000 -0.000
1730 4 4.928 10.365 14.314 0.006 -0.003 0.001 0.000
1731 4 6.604 8.379 14.291 0.001 0.001 -0.005 0.000
1732 4 6.644 10.158 12.449 0.005 -0.002 0.004 0.000
1733 4 8.308 8.538 12.059 -0.007 -0.014 -0.003 0.000
1734 4 8.528 10.148 14.081 0.004 -0.003 0.003 0.000
1735 4 11.089 8.477 14.059 -0.005 0.005 0.013 0.000
1736 4 10.161 10.612 12.128 0.005 -0.003 0.002 0.000
1737 4 12.589 8.214 12.019 0.008 -0.010 0.001 0.000
1738 4 12.151 10.604 13.766 0.008 0.009 0.009 0.000
1739 4 14.595 8.532 14.194 -0.007 0.008 0.000 0.000
1740 4 14.616 10.231 12.305 -0.002 -0.008 0.001 0.000
1763 4 -1.096 11.980 14.161 0.000 0.008 0.010 -0.000
1764 4 -0.868 13.824 12.195 -0.004 0.011 -0.006 0.000
1765 4 0.923 12.469 12.127 0.011 0.003 0.004 -0.000
1766 4 0.739 14.051 14.036 0.007 0.000 -0.007 -0.000
1767 4 3.001 12.105 14.184 -0.001 0.001 0.006 0.000
1768 4 3.014 13.875 12.462 0.000 0.010 -0.007 0.000
1769 4 4.637 11.872 12.124 0.001 -0.005 -0.002 0.000
1770 4 4.820 14.418 14.559 0.012 0.001 -0.007 0.000
1771 4 6.740 12.280 14.136 -0.011 -0.002 0.004 0.000
1772 4 6.410 14.281 12.232 0.001 -0.006 0.000 0.000
1773 4 8.342 12.522 12.200 -0.008 0.004 -0.001 0.000
1774 4 8.600 14.471 14.275 -0.009 0.007 0.001 -0.000
1775 4 10.154 12.358 13.989 0.004 -0.006 0.001 0.000
1776 4 10.461 14.203 11.908 0.002 -0.002 -0.005 -0.000
1777 4 12.148 12.361 12.113 -0.002 0.004 -0.008 -0.000
1778 4 12.177 14.381 14.001 0.003 0.004 0.002 -0.000
1779 4 14.570 12.042 14.014 -0.003 0.001 -0.002 0.000
1780 4 14.233 14.288 12.376 0.007 -0.000 0.003 0.000
2004 4 -1.200 -1.241 15.950 0.006 0.007 0.004 0.000
2006 4 0.475 -1.276 17.762 -0.003 -0.009 -0.002 -0.000
2008 4 2.976 -1.160 16.505 0.007 -0.001 -0.001 -0.000
2010 4 4.521 -1.078 18.471 0.005 0.006 0.005 0.000
2012 4 6.619 -1.093 16.318 0.005 -0.002 -0.004 0.000
2014 4 8.237 -1.085 18.031 -0.005 -0.016 0.003 0.000
2016 4 10.091 -1.156 16.397 0.002 0.003 -0.002 -0.000
2018 4 12.076 -1.304 17.953 0.005 -0.001 0.006 0.000
2020 4 13.610 -1.448 15.684 0.006 0.004 0.008 -0.000
2043 4 -1.308 0.609 17.831 0.009 -0.002 0.005 -0.000
2044 4 -1.398 3.008 16.203 0.004 0.006 -0.004 0.000
2045 4 0.351 0.812 15.989 -0.005 -0.006 -0.001 0.000
2046 4 0.301 2.946 18.189 0.003 -0.004 -0.006 0.000
2047 4 2.406 0.749 18.306 0.002 -0.003 -0.002 0.000
2048 4 2.594 2.439 16.341 0.004 0.002 0.002 0.000
2049 4 4.617 0.704 16.602 0.000 0.000 0.005 0.000
2050 4 4.328 2.625 18.156 0.010 -0.002 -0.010 0.000
2051 4 6.746 0.707 18.447 0.013 -0.002 0.007 0.000
2052 4 6.567 2.782 16.237 0.004 -0.004 -0.012 0.000
2053 4 8.477 1.232 16.536 0.005 0.001 -0.009 -0.000
2054 4 8.468 2.891 18.293 0.002 0.003 -0.004 -0.000
2055 4 10.190 0.696 18.187 -0.003 -0.003 0.000 0.000
2056 4 10.536 2.732 16.071 0.002 -0.008 -0.003 -0.000
2057 4 12.019 0.624 16.219 -0.007 0.000 0.009 -0.000
2058 4 11.965 2.853 18.076 0.003 0.001 0.001 -0.000
2059 4 13.881 0.621 17.749 -0.003 0.001 -0.009 0.000
2060 4 14.461 3.026 16.178 0.002 -0.003 0.005 0.000
2083 4 -0.931 5.128 18.016 0.004 -0.000 -0.013 -0.000
2084 4 -1.371 6.675 16.149 -0.007 0.003 -0.001 -0.000
2085 4 0.833 4.645 16.038 -0.001 0.011 0.004 -0.000
2086 4 0.790 6.789 18.167 0.002 -0.001 -0.001 0.000
2087 4 2.293 4.419 18.080 -0.000 -0.001 -0.004 0.000
2088 4 2.667 6.581 16.346 -0.006 0.007 -0.016 -0.000
2089 4 4.665 5.352 16.288 -0.002 0.002 0.000 0.000
2090 4 5.125 6.674 18.152 0.004 0.001 0.006 0.000
2091 4 6.494 4.590 18.086 -0.012 0.001 -0.003 0.000
2092 4 6.725 6.825 16.148 0.008 -0.002 0.001 0.000
2093 4 8.241 4.784 16.552 -0.003 0.005 0.002 -0.000
2094 4 8.126 6.688 18.000 -0.001 -0.000 0.001 -0.000
2095 4 10.209 4.925 18.443 0.000 0.004 0.006 -0.000
2096 4 10.367 6.223 16.508 -0.000 0.010 -0.005 -0.000
2097 4 12.528 4.810 16.118 -0.010 -0.005 -0.007 -0.000
2098 4 12.511 6.183 18.107 -0.006 0.004 0.003 -0.000
2099 4 14.052 4.627 18.115 -0.014 -0.003 -0.006 0.000
2100 4 14.574 6.689 15.848 -0.004 -0.001 -0.000 0.000
2123 4 -0.563 8.559 18.243 0.005 0.009 0.000 -0.000
2124 4 -0.732 10.229 16.421 0.010 0.003 -0.007 -0.000
2125 4 1.353 8.738 16.303 -0.005 -0.006 -0.001 -0.000
2126 4 1.116 10.015 18.315 0.007 0.000 0.004 0.000
2127 4 2.769 8.050 18.359 -0.007 0.003 -0.005 -0.000
2128 4 3.136 10.480 16.716 0.002 0.015 0.001 0.000
2129 4 4.595 8.490 15.790 -0.005 -0.003 0.004 0.000
2130 4 4.760 10.194 18.275 -0.001 0.000 -0.009 0.000
2131 4 6.386 8.791 17.786 -0.001 -0.007 0.002 0.000
2132 4 6.810 10.152 16.189 0.003 0.006 -0.006 0.000
2133 4 8.825 8.493 15.841 0.002 0.004 0.003 0.000
2134 4 8.646 10.292 18.017 -0.010 0.009 -0.001 0.000
2135 4 10.588 8.713 18.438 -0.001 0.006 0.000 -0.000
2136 4 10.853 10.342 16.193 0.000 -0.003 0.013 0.000
2137 4 12.526 8.150 16.314 0.003 0.006 -0.005 0.000
2138 4 12.626 10.107 18.144 -0.004 -0.001 0.006 -0.000
2139 4 14.539 8.286 18.105 0.000 -0.000 0.004 -0.000
2140 4 14.042 10.259 16.019 -0.006 -0.004 -0.007 0.000
2163 4 -1.056 12.318 17.997 0.003 -0.003 -0.010 -0.000
2164 4 -1.356 14.348 15.873 0.006 0.009 0.011 -0.000
2165 4 0.762 12.486 16.284 0.002 0.002 -0.009 -0.000
2166 4 0.852 14.405 17.953 -0.016 0.004 0.009 -0.000
2167 4 2.829 12.378 18.249 -0.003 -0.004 0.001 0.000
2168 4 2.712 14.447 16.086 -0.006 -0.003 -0.001 0.000
2169 4 5.175 11.770 16.343 0.014 -0.004 -0.000 0.000
2170 4 4.624 14.086 17.980 0.007 -0.002 0.002 -0.000
2171 4 6.431 12.167 18.171 -0.003 0.003 0.006 0.000
2172 4 6.537 13.862 16.205 0.002 0.004 0.009 0.000
2173 4 8.457 12.165 16.144 0.006 0.003 -0.001 0.000
2174 4 8.386 13.776 18.155 -0.003 0.006 -0.001 -0.000
2175 4 10.467 11.901 17.848 -0.004 0.003 -0.004 0.000
2176 4 10.302 13.994 16.270 -0.002 -0.005 0.007 -0.000
2177 4 12.336 12.241 15.559 -0.000 -0.007 -0.001 0.000
2178 4 12.269 14.053 17.905 0.003 -0.001 0.003 0.000
2179 4 14.184 12.046 18.051 -0.009 -0.004 0.005 0.000
2180 4 14.175 14.313 15.895 0.000 -0.007 0.009 -0.000
2404 4 -1.052 -1.147 19.732 -0.008 0.001 -0.001 -0.000
2408 4 2.725 -1.419 19.905 -0.011 -0.000 -0.003 0.000
2412 4 6.610 -1.159 19.959 -0.009 -0.010 0.003 0.000
2416 4 10.292 -0.988 19.895 0.007 0.008 0.002 0.000
2420 4 14.014 -1.226 19.990 -0.007 -0.001 -0.008 0.000
2444 4 -1.139 3.022 20.497 -0.005 -0.011 -0.014 0.000
2445 4 0.285 0.899 20.161 0.001 0.008 0.006 0.000
2448 4 2.521 2.957 20.164 0.005 0.003 -0.006 0.000
2449 4 4.551 0.735 20.446 -0.002 -0.001 0.002 0.000
2452 4 6.343 2.935 20.147 -0.008 0.006 -0.003 0.000
2453 4 8.545 0.955 20.121 0.006 -0.000 -0.011 0.000
2456 4 10.580 2.661 20.039 -0.003 0.007 0.004 -0.000
2457 4 12.236 0.776 19.683 0.006 0.002 -0.002 0.000
2460 4 14.128 2.864 20.139 -0.004 0.005 0.003 -0.000
2484 4 -1.183 7.007 20.272 0.000 0.009 -0.010 -0.000
2485 4 0.800 4.999 20.104 -0.005 -0.004 0.008 0.000
2488 4 2.943 6.248 20.037 0.013 0.011 0.007 0.000
2489 4 4.708 4.514 19.846 -0.001 -0.001 0.002 0.000
2492 4 6.508 6.651 20.114 -0.002 0.001 -0.001 0.000
2493 4 8.162 4.840 19.971 -0.006 0.004 -0.009 -0.000
2496 4 10.365 6.863 20.281 0.002 0.006 0.007 -0.000
2497 4 11.933 4.779 20.059 -0.004 0.002 -0.003 -0.000
2500 4 14.421 6.409 20.292 0.004 0.005 -0.001 -0.000
2524 4 -0.650 10.373 19.999 0.002 -0.013 -0.007 0.000
2525 4 1.123 8.274 20.222 0.002 -0.007 -0.012 0.000
2528 4 2.757 10.870 20.143 0.002 0.001 -0.003 0.000
2529 4 4.697 8.572 19.984 -0.006 -0.001 -0.007 0.000
2532 4 6.495 10.404 20.049 -0.000 -0.017 -0.006 0.000
2533 4 7.936 8.604 19.833 -0.000 -0.000 -0.003 0.000
2536 4 10.775 10.422 20.155 -0.003 -0.008 -0.006 -0.000
2537 4 12.668 8.486 20.147 0.002 -0.005 -0.003 -0.000
2540 4 14.384 10.414 19.677 -0.005 0.007 0.002 -0.000
2564 4 -1.020 14.261 20.198 -0.004 -0.004 0.006 -0.000
2565 4 0.656 12.359 20.468 0.003 0.006 0.000 0.000
2568 4 2.687 13.936 19.746 -0.005 -0.003 -0.001 -0.000
2569 4 4.993 12.367 20.005 0.003 -0.015 -0.003 0.000
2572 4 6.637 14.343 20.036 0.010 -0.007 0.008 -0.000
2573 4 8.403 11.935 19.913 0.002 0.008 -0.010 0.000
2576 4 10.636 13.961 19.717 0.003 0.005 0.003 0.000
2577 4 12.409 12.404 19.865 -0.006 -0.008 0.007 0.000
2580 4 14.332 13.950 20.262 0.006 0.008 -0.007 0.000
2575 4 10.231 12.261 21.613 0.008 -0.004 -0.004 0.000
2499 4 13.534 4.417 21.897 -0.003 -0.004 0.003 -0.000
2539 4 14.477 8.282 22.368 0.008 0.008 -0.004 -0.000
2538 4 12.808 10.360 21.825 -0.018 -0.011 -0.011 -0.000
2579 4 14.508 12.168 22.112 -0.002 -0.003 0.010 0.000
2451 4 6.855 1.028 21.556 -0.004 -0.005 0.005 0.000
2410 4 4.610 -0.906 22.151 -0.008 -0.005 -0.002 0.000
2450 4 4.695 2.966 21.994 -0.002 -0.002 -0.002 0.000
2491 4 6.677 4.648 21.990 -0.004 0.007 -0.004 -0.000
2574 4 9.057 14.240 21.680 -0.003 0.002 0.001 -0.000
2578 4 11.903 14.185 21.773 0.006 -0.019 -0.007 0.000
2530 4 4.546 10.776 22.029 0.006 0.005 0.010 0.000
2447 4 2.901 0.974 22.228 0.002 0.007 0.002 0.000
2414 4 8.532 -1.141 21.997 0.002 -0.005 -0.001 0.000
2458 4 12.250 2.091 22.220 -0.003 -0.002 -0.000 -0.000
2459 4 14.003 0.302 21.791 -0.001 0.004 0.001 0.000
2454 4 8.600 2.931 21.920 -0.003 0.012 0.003 -0.000
2526 4 1.366 10.209 22.033 0.003 0.009 0.005 0.000
2498 4 12.126 6.707 22.393 0.002 0.001 0.000 -0.000
2534 4 8.410 10.716 22.346 0.006 0.011 0.005 0.000
2571 4 6.838 12.531 22.417 -0.002 -0.002 0.000 -0.000
2567 4 2.630 12.583 22.122 0.000 -0.011 0.007 0.000
2486 4 0.397 6.366 22.160 0.006 0.000 0.003 0.000
2531 4 6.587 8.692 22.128 0.005 0.000 -0.005 0.000
2490 4 4.863 6.450 22.097 0.002 0.007 -0.008 0.000
2443 4 -1.174 1.146 22.342 -0.009 -0.005 0.004 -0.000
2527 4 2.846 7.655 21.807 -0.007 -0.010 0.002 0.000
2446 4 0.450 3.446 22.436 -0.001 -0.002 -0.000 -0.000
2487 4 2.819 4.720 22.051 0.000 0.004 0.005 -0.000
2570 4 4.855 13.989 22.223 0.007 0.009 -0.008 -0.000
2455 4 10.332 0.300 22.096 -0.006 0.003 0.006 -0.000
2523 4 -0.733 8.623 22.073 0.008 -0.005 -0.001 -0.000
2406 4 0.808 -0.671 21.858 0.005 0.001 0.005 -0.000
2494 4 8.457 6.534 22.288 -0.006 -0.003 -0.001 -0.000
2563 4 -1.405 12.581 21.900 -0.003 0.002 -0.002 0.000
2535 4 10.463 8.435 21.902 -0.008 0.008 -0.000 -0.000
2418 4 12.246 -1.685 21.644 -0.005 0.002 0.003 0.000
2581 4 16.195 11.976 20.063 0.016 -0.004 0.001 0.000
57 4 12.267 0.473 -2.973 -0.002 -0.000 -0.008 0.000
1222 4 15.838 -1.132 10.416 0.005 0.007 0.001 0.000
137 4 12.552 8.436 -3.074 0.009 0.013 -0.006 -0.000
1661 4 15.865 0.622 12.123 0.007 -0.002 -0.009 -0.000
140 4 14.459 9.847 -3.051 -0.000 0.008 -0.018 0.000
1622 4 16.178 -1.134 13.813 0.004 -0.001 0.002 -0.000
62 4 15.743 2.631 -0.807 0.012 -0.010 0.000 0.000
2542 4 16.195 10.385 22.430 0.009 0.004 -0.004 -0.000
2611 4 6.837 15.833 22.261 0.000 0.003 -0.002 -0.000
1261 4 16.071 0.675 8.495 0.007 0.000 0.001 0.000
462 4 15.896 2.617 2.536 0.002 -0.005 -0.001 0.000
2402 4 -2.586 -0.999 21.696 0.008 0.007 0.002 -0.000
215 4 10.032 15.775 -1.591 0.011 0.010 0.006 -0.000
402 4 -2.726 -1.482 2.815 -0.005 -0.000 -0.001 0.000
1403 4 -0.954 16.106 10.721 0.001 0.006 -0.000 0.000
2609 4 4.808 15.726 20.031 0.014 0.001 0.001 -0.000
124 4 -1.202 10.330 -2.879 -0.009 0.004 -0.003 0.000
607 4 2.906 16.168 2.825 -0.002 0.011 -0.005 0.000
2566 4 0.837 14.409 22.227 0.009 -0.005 -0.008 -0.000
45 4 0.963 0.848 -3.022 0.001 0.003 -0.009 0.000
101 4 16.138 4.594 -2.745 -0.002 0.002 -0.003 -0.000
2461 4 16.051 0.716 19.782 0.001 0.008 0.011 0.000
441 4 -2.514 0.810 0.942 0.001 0.001 -0.003 0.000
1202 4 -2.686 -1.659 10.564 -0.008 -0.004 -0.004 0.000
1803 4 -1.120 16.105 14.356 0.007 0.005 0.002 -0.000
2462 4 15.762 2.248 21.813 -0.001 -0.004 -0.001 0.000
1381 4 15.889 12.049 8.171 -0.004 -0.006 0.013 -0.000
102 4 16.132 6.482 -1.062 0.007 -0.007 0.006 -0.000
2619 4 14.416 16.040 21.643 0.004 0.004 -0.009 0.000
2413 4 8.495 -3.093 20.404 0.003 -0.001 0.009 0.000
2022 4 15.941 -1.034 17.932 0.010 0.010 0.006 -0.000
2502 4 16.170 6.401 21.717 0.012 -0.005 -0.004 -0.000
522 4 -2.572 9.905 3.144 -0.004 0.008 0.004 -0.000
882 4 -2.689 6.782 6.835 -0.014 -0.009 0.000 -0.000
2613 4 8.982 15.793 20.058 -0.002 0.000 0.019 -0.000
2405 4 0.690 -3.011 20.238 0.002 -0.011 -0.006 -0.000
2011 4 6.852 -2.897 18.070 0.006 0.003 0.004 0.000
133 4 8.565 8.514 -2.797 0.009 0.000 0.001 0.000
52 4 6.817 2.668 -2.859 0.003 -0.011 -0.006 0.000
981 4 15.937 12.056 4.447 0.004 -0.012 0.002 -0.000
581 4 16.137 12.618 1.146 0.004 0.001 0.000 0.000
1782 4 16.123 13.980 13.797 0.000 0.001 0.006 0.000
2062 4 16.058 2.444 17.864 0.008 0.004 0.001 0.000
2042 4 -2.390 3.055 18.191 -0.001 0.002 0.009 0.000
1805 4 0.961 15.633 12.587 0.005 0.010 -0.001 0.000
1409 4 4.298 16.046 9.009 0.006 0.002 0.003 -0.000
1617 4 12.256 -2.967 12.079 0.003 0.003 0.001 0.000
1621 4 15.598 -3.164 12.593 0.002 -0.006 0.001 0.000
1221 4 15.829 -2.953 8.696 0.001 -0.009 0.007 0.000