ITEM: TIMESTEP
18000
ITEM: NUMBER OF ATOMS
32000
ITEM: BOX BOUNDS pp pp pp
-2.912879 73.392879
-3.185885 73.665885
-2.956095 73.436095
ITEM: ATOMS id type x y z vx vy vz q
6 4 1.041 -1.075 -1.448 -0.007 -0.002 -0.002 0.000
10 4 4.936 -1.491 -1.097 -0.004 0.001 0.008 0.000
14 4 8.670 -1.327 -0.854 -0.004 -0.001 0.008 -0.000
18 4 12.265 -1.186 -0.224 0.005 -0.006 -0.003 0.000
43 4 -1.320 0.641 -0.887 0.015 -0.000 0.006 0.000
46 4 0.917 2.542 -1.040 -0.003 0.002 -0.002 0.000
47 4 2.963 0.709 -0.687 0.004 -0.002 0.004 0.000
50 4 4.798 2.514 -0.876 -0.004 0.007 0.006 0.000
51 4 6.334 0.845 -1.069 0.005 0.003 -0.005 -0.000
54 4 8.434 2.824 -0.801 0.001 -0.009 -0.012 -0.000
55 4 10.216 0.764 -0.772 0.003 0.005 0.001 0.000
58 4 12.317 2.460 -1.088 0.004 0.001 -0.001 0.000
59 4 13.989 0.786 -0.759 -0.004 0.003 0.008 0.000
83 4 -0.937 4.834 -1.172 -0.005 0.003 0.005 0.000
86 4 1.327 6.357 -0.923 0.002 0.001 -0.006 -0.000
87 4 2.922 4.182 -0.452 -0.003 0.002 -0.001 0.000
90 4 4.716 6.570 -0.655 -0.003 0.000 0.002 -0.000
91 4 6.490 4.758 -0.607 -0.000 -0.014 -0.005 0.000
94 4 8.467 6.589 -0.608 -0.003 -0.009 -0.003 -0.000
95 4 10.540 4.890 -1.368 0.007 -0.000 -0.003 0.000
98 4 12.604 6.726 -0.872 -0.008 -0.003 -0.009 -0.000
99 4 14.360 4.575 -1.040 -0.006 0.001 0.007 0.000
123 4 -1.098 8.198 -1.080 0.001 0.002 0.009 0.000
126 4 0.718 10.532 -0.772 0.009 0.015 0.014 0.000
127 4 2.758 8.528 -0.381 -0.005 0.001 -0.005 0.000
130 4 4.621 10.115 -0.873 -0.000 -0.003 0.012 -0.000
131 4 6.475 8.224 -0.414 -0.006 0.003 0.002 -0.000
134 4 8.476 10.034 -0.682 -0.001 0.006 0.003 -0.000
135 4 10.468 7.978 -0.965 -0.004 -0.003 0.008 -0.000
138 4 12.047 10.171 -1.039 0.006 0.005 -0.005 -0.000
139 4 14.203 8.299 -1.011 -0.009 -0.004 0.001 -0.000
163 4 -0.746 12.320 -0.932 -0.002 0.007 0.002 -0.000
166 4 0.776 14.118 -1.289 -0.001 -0.002 -0.000 0.000
167 4 2.628 12.764 -0.763 0.011 -0.003 -0.006 -0.000
170 4 4.870 14.760 -1.138 0.010 0.017 -0.003 -0.000
171 4 6.578 12.395 -0.325 0.002 0.004 -0.016 -0.000
174 4 8.589 14.508 -1.131 -0.007 0.013 -0.012 -0.000
175 4 10.780 12.384 -1.063 0.007 0.001 -0.002 -0.000
178 4 12.148 14.581 -1.217 -0.002 0.006 -0.003 -0.000
179 4 14.607 12.299 -1.031 0.005 0.007 0.000 0.000
404 4 -1.000 -1.409 0.794 0.009 -0.005 0.009 -0.000
406 4 1.036 -1.099 2.654 0.002 -0.001 0.015 0.000
408 4 2.807 -1.691 1.058 -0.002 0.002 0.010 0.000
410 4 4.642 -1.330 2.842 0.004 0.003 0.013 0.000
412 4 6.760 -1.316 0.569 0.001 0.004 -0.009 0.000
414 4 8.788 -1.308 2.809 0.006 -0.000 -0.004 -0.000
416 4 10.155 -1.197 0.843 -0.005 -0.005 -0.001 0.000
418 4 12.177 -1.119 2.653 0.005 -0.002 -0.010 0.000
420 4 14.372 -1.261 1.009 0.001 -0.006 0.007 0.000
443 4 -0.858 0.647 2.849 -0.009 -0.018 -0.005 0.000
444 4 -0.834 2.707 1.187 0.005 -0.005 -0.002 0.000
445 4 1.033 0.631 0.869 0.010 0.007 0.000 -0.000
446 4 1.235 2.253 2.704 -0.014 -0.004 -0.000 0.000
447 4 2.908 0.301 2.947 -0.001 -0.003 -0.002 -0.000
448 4 3.236 2.166 1.192 0.005 0.008 -0.007 0.000
449 4 4.884 0.409 1.002 0.002 0.006 0.004 0.000
450 4 5.025 2.530 2.625 0.003 -0.005 -0.002 0.000
451 4 6.747 0.688 2.706 0.010 0.007 -0.002 0.000
452 4 6.602 2.682 0.935 -0.004 0.001 -0.002 -0.000
453 4 8.379 0.673 0.854 -0.002 -0.002 0.004 -0.000
454 4 8.441 2.667 2.877 -0.002 -0.005 0.002 0.000
455 4 10.077 0.942 2.864 0.007 0.003 -0.002 -0.000
456 4 10.442 2.584 0.740 -0.000 -0.002 0.004 0.000
457 4 12.141 0.838 1.120 -0.006 -0.003 0.002 -0.000
458 4 12.402 2.607 2.686 0.002 0.003 0.010 0.000
459 4 14.104 0.292 3.099 0.003 -0.008 -0.002 0.000
460 4 14.356 2.231 1.126 -0.004 0.009 0.003 0.000
483 4 -0.979 4.970 2.819 0.004 -0.009 0.003 -0.000
484 4 -0.713 6.331 0.393 0.001 -0.001 -0.003 0.000
485 4 0.924 4.674 1.213 0.003 0.002 -0.007 0.000
486 4 1.166 6.278 3.065 -0.003 0.001 -0.003 -0.000
487 4 2.868 4.248 2.434 -0.009 0.000 0.003 -0.000
488 4 2.865 6.502 1.178 -0.008 -0.000 -0.004 0.000
489 4 4.581 4.385 1.042 -0.008 -0.007 0.005 -0.000
490 4 4.845 6.443 2.859 -0.007 -0.000 0.007 -0.000
491 4 6.853 4.543 3.010 0.009 -0.001 0.006 0.000
492 4 6.706 6.418 1.298 -0.004 -0.003 0.013 0.000
493 4 8.797 4.523 1.292 -0.005 0.017 0.004 -0.000
494 4 8.741 6.846 2.920 -0.005 -0.003 0.008 -0.000
495 4 10.291 4.551 2.883 -0.004 0.010 0.004 0.000
496 4 10.808 6.405 0.996 -0.003 -0.002 -0.012 0.000
497 4 12.406 4.261 0.901 -0.001 -0.001 0.001 -0.000
498 4 12.236 6.577 2.977 0.003 0.001 0.004 -0.000
499 4 14.085 4.683 3.177 -0.006 -0.002 0.000 -0.000
500 4 13.742 6.370 1.061 0.001 -0.001 0.005 0.000
523 4 -0.957 8.105 2.880 -0.007 0.001 -0.003 0.000
524 4 -0.938 9.960 1.218 -0.005 0.001 0.001 -0.000
525 4 0.766 8.069 0.927 0.004 -0.006 0.012 -0.000
526 4 1.255 10.453 2.706 -0.008 -0.004 -0.004 -0.000
527 4 2.733 8.482 2.865 -0.000 -0.003 -0.005 -0.000
528 4 3.000 10.540 1.109 -0.002 0.003 0.012 -0.000
529 4 4.746 8.458 1.220 -0.004 -0.004 0.006 -0.000
530 4 4.813 10.348 2.673 0.005 0.003 -0.003 -0.000
531 4 6.873 8.543 2.847 -0.004 0.007 -0.002 -0.000
532 4 6.620 10.439 0.713 -0.004 -0.006 0.004 0.000
533 4 8.508 8.317 0.894 0.003 0.005 0.008 0.000
534 4 8.480 10.503 2.321 -0.007 0.008 0.007 -0.000
535 4 10.254 8.715 2.926 0.009 0.003 0.001 0.000
536 4 10.527 10.101 0.872 -0.005 0.011 0.003 -0.000
537 4 12.401 8.274 0.969 -0.004 -0.008 0.002 -0.000
538 4 12.487 10.330 3.092 -0.001 0.002 -0.004 0.000
539 4 14.055 8.494 3.341 -0.007 0.000 -0.002 -0.000
540 4 13.752 10.327 0.974 0.008 -0.009 0.002 -0.000
563 4 -1.150 12.052 3.041 -0.006 0.001 -0.002 -0.000
564 4 -1.480 14.390 1.091 -0.009 -0.007 0.001 0.000
565 4 1.000 12.735 1.047 -0.004 -0.007 0.007 0.000
566 4 1.068 14.227 2.674 -0.000 -0.012 -0.002 -0.000
567 4 2.925 12.546 2.367 -0.004 0.003 -0.008 0.000
568 4 2.858 14.771 0.801 0.003 -0.003 -0.007 -0.000
569 4 4.574 12.465 0.420 0.002 -0.004 -0.002 0.000
570 4 4.928 14.295 2.936 -0.002 -0.004 0.004 -0.000
571 4 6.761 12.544 2.368 0.005 0.006 -0.007 -0.000
572 4 6.456 14.735 0.812 -0.001 0.007 0.004 0.000
573 4 9.267 12.504 0.762 0.001 -0.010 -0.003 0.000
574 4 8.522 13.916 2.916 0.003 -0.002 -0.003 -0.000
575 4 10.736 12.022 3.009 -0.012 -0.004 -0.000 0.000
576 4 10.478 14.545 0.626 0.005 -0.003 -0.001 0.000
577 4 12.198 12.435 0.755 0.004 0.001 0.003 0.000
578 4 12.176 14.345 2.926 0.001 -0.011 0.001 -0.000
579 4 14.138 12.635 2.450 -0.007 -0.005 0.002 -0.000
580 4 14.345 14.306 1.056 -0.005 -0.005 0.001 0.000
804 4 -0.829 -1.559 4.769 -0.001 -0.000 0.011 -0.000
806 4 1.161 -0.868 6.648 0.005 0.015 -0.006 -0.000
808 4 2.856 -1.308 4.916 0.010 0.012 0.004 -0.000
810 4 4.937 -1.386 6.701 0.006 -0.008 -0.003 0.000
812 4 6.799 -1.004 4.674 0.006 -0.003 -0.005 -0.000
814 4 8.535 -1.049 6.796 0.002 0.001 -0.005 -0.000
816 4 10.382 -1.087 4.766 -0.007 -0.006 -0.001 0.000
818 4 12.204 -1.600 7.045 -0.002 -0.004 -0.002 -0.000
820 4 14.265 -1.112 5.069 -0.002 0.004 -0.002 0.000
843 4 -0.642 0.843 6.608 -0.002 0.008 0.002 0.000
844 4 -0.797 2.821 4.621 -0.006 0.010 -0.007 -0.000
845 4 1.066 0.671 4.732 0.002 -0.011 -0.021 0.000
846 4 0.735 3.119 6.896 -0.003 0.002 0.007 -0.000
847 4 3.001 0.970 6.698 -0.007 0.005 -0.008 -0.000
848 4 3.261 2.471 4.468 -0.008 -0.010 0.001 -0.000
849 4 5.060 0.067 4.904 -0.008 -0.003 -0.010 0.000
850 4 4.748 2.611 6.427 0.001 -0.012 0.001 0.000
851 4 6.564 0.963 6.958 0.011 -0.001 0.000 -0.000
852 4 6.556 2.540 4.676 0.004 -0.006 -0.001 -0.000
853 4 8.240 0.734 4.852 0.003 -0.006 0.002 0.000
854 4 8.383 2.633 6.615 -0.006 -0.010 0.006 0.000
855 4 10.948 0.635 6.812 -0.002 -0.002 0.006 -0.000
856 4 10.480 2.408 5.015 -0.013 -0.011 -0.006 -0.000
857 4 12.275 0.779 4.670 0.008 0.012 -0.005 0.000
858 4 12.435 3.003 6.978 -0.008 0.002 0.003 0.000
859 4 13.863 0.816 6.315 0.002 0.001 -0.007 -0.000
860 4 13.966 2.639 4.990 -0.002 0.007 0.003 -0.000
883 4 -1.270 4.487 6.603 -0.007 -0.004 0.012 -0.000
884 4 -1.069 6.392 4.957 -0.002 -0.001 0.010 -0.000
885 4 1.274 3.976 4.511 -0.003 0.001 -0.009 0.000
886 4 1.329 5.834 6.556 0.003 0.009 0.006 -0.000
887 4 3.031 4.096 6.562 0.008 0.004 0.001 -0.000
888 4 3.147 6.577 4.665 0.006 0.001 -0.000 -0.000
889 4 4.646 4.392 4.659 -0.004 -0.003 0.001 0.000
890 4 4.637 6.498 6.672 0.006 -0.001 -0.012 -0.000
891 4 6.244 4.823 6.278 -0.004 -0.004 -0.004 -0.000
892 4 6.781 6.867 4.923 0.003 -0.004 0.006 0.000
893 4 8.436 4.205 4.663 -0.006 -0.000 -0.006 0.000
894 4 8.253 6.373 6.694 0.009 -0.006 0.003 -0.000
895 4 10.402 4.186 6.592 -0.004 -0.001 0.000 -0.000
896 4 10.274 6.278 5.078 0.006 0.008 -0.005 0.000
897 4 12.244 4.892 4.961 0.000 -0.012 0.005 -0.000
898 4 12.402 6.124 6.929 -0.010 -0.017 0.000 0.000
899 4 14.407 4.583 6.787 0.003 -0.010 -0.000 -0.000
900 4 14.459 6.650 5.171 0.003 -0.010 0.003 0.000
923 4 -0.772 8.266 6.770 -0.000 -0.003 0.003 0.000
924 4 -0.459 10.344 4.796 -0.001 -0.004 -0.001 0.000
925 4 0.649 8.059 4.758 0.001 -0.004 0.004 -0.000
926 4 1.058 10.175 6.647 0.001 -0.006 -0.000 -0.000
927 4 2.654 8.263 6.775 0.004 -0.005 0.013 -0.000
928 4 2.706 10.214 4.757 0.005 0.001 0.012 -0.000
929 4 4.839 8.409 4.371 -0.004 -0.005 -0.005 -0.000
930 4 4.773 10.033 6.232 0.010 -0.005 0.000 0.000
931 4 6.736 8.492 6.466 -0.009 -0.017 -0.002 -0.000
932 4 6.768 10.543 4.696 0.006 -0.003 0.001 0.000
933 4 8.345 8.649 4.669 0.006 -0.009 -0.001 0.000
934 4 8.500 10.141 6.738 0.009 -0.008 -0.001 0.000
935 4 9.942 8.365 6.585 0.004 -0.002 0.006 0.000
936 4 10.667 9.860 4.847 -0.001 -0.004 -0.011 -0.000
937 4 12.334 8.133 5.420 -0.018 0.003 0.000 -0.000
938 4 12.087 10.605 6.641 0.005 0.010 0.003 0.000
939 4 14.724 8.035 6.999 -0.009 0.008 0.002 -0.000
940 4 14.125 10.104 5.173 0.001 -0.006 0.000 0.000
963 4 -0.896 11.993 6.708 -0.001 -0.002 -0.006 -0.000
964 4 -1.345 14.161 4.896 0.008 -0.004 -0.007 -0.000
965 4 0.946 12.441 4.450 -0.001 -0.000 -0.007 0.000
966 4 0.736 14.359 6.343 -0.002 -0.000 -0.009 -0.000
967 4 2.793 12.253 6.507 -0.007 0.001 -0.004 -0.000
968 4 2.948 14.248 4.386 -0.005 0.008 -0.010 -0.000
969 4 4.640 12.148 4.479 -0.001 -0.006 -0.002 -0.000
970 4 4.663 14.033 6.536 0.002 0.002 0.003 -0.000
971 4 7.051 12.257 6.799 -0.005 -0.007 0.004 -0.000
972 4 6.663 14.061 4.420 -0.007 0.012 0.002 0.000
973 4 8.710 12.063 4.967 0.012 -0.000 -0.001 -0.000
974 4 8.551 14.361 6.563 0.003 0.010 -0.003 0.000
975 4 10.124 12.291 6.983 -0.002 -0.002 0.003 0.000
976 4 10.578 13.867 4.878 -0.003 -0.005 0.004 0.000
977 4 12.632 12.202 4.639 0.003 0.000 -0.008 -0.000
978 4 12.093 13.931 6.460 -0.015 0.002 0.004 -0.000
979 4 14.132 12.186 6.561 0.008 -0.001 -0.005 -0.000
980 4 14.012 13.994 4.377 -0.003 -0.000 0.007 0.000
1204 4 -0.944 -1.293 8.305 0.002 -0.008 0.004 0.000
1206 4 1.273 -1.361 10.090 -0.005 -0.008 -0.004 0.000
1208 4 3.014 -0.921 8.457 -0.003 0.004 0.004 -0.000
1210 4 4.557 -0.838 10.366 0.001 0.004 0.008 0.000
1212 4 6.800 -1.013 8.815 -0.009 0.010 0.002 0.000
1214 4 8.629 -1.110 10.307 -0.001 0.005 -0.008 -0.000
1216 4 10.304 -1.248 8.843 -0.003 0.006 0.001 0.000
1218 4 13.022 -1.246 10.569 -0.005 0.001 -0.003 -0.000
1220 4 14.569 -1.072 8.320 -0.000 0.004 0.004 0.000
1243 4 -1.174 0.711 10.190 0.007 -0.001 -0.001 -0.000
1244 4 -0.884 2.410 8.456 0.004 -0.009 0.006 0.000
1245 4 0.960 0.806 8.407 -0.008 0.001 -0.001 0.000
1246 4 0.646 2.653 10.584 -0.003 0.003 -0.013 0.000
1247 4 2.791 0.757 10.288 -0.006 0.004 -0.001 0.000
1248 4 2.819 2.805 9.097 -0.011 -0.010 -0.007 -0.000
1249 4 4.744 1.073 8.586 0.001 -0.006 0.012 0.000
1250 4 4.831 2.749 10.462 -0.009 0.006 -0.002 0.000
1251 4 6.719 1.203 10.368 -0.008 0.012 -0.010 -0.000
1252 4 6.411 2.795 8.638 -0.001 0.004 0.003 -0.000
1253 4 8.546 0.847 8.419 -0.009 -0.000 -0.005 0.000
1254 4 8.500 2.606 10.458 -0.004 -0.001 0.009 0.000
1255 4 10.432 0.554 10.893 -0.002 -0.003 0.008 -0.000
1256 4 10.612 2.230 9.067 -0.006 0.002 0.008 -0.000
1257 4 12.370 0.694 9.046 0.006 -0.003 0.014 0.000
1258 4 12.448 2.521 10.585 -0.004 -0.002 0.006 0.000
1259 4 14.478 0.834 10.626 0.001 0.010 0.004 0.000
1260 4 13.881 2.236 8.502 0.001 0.002 0.007 -0.000
1283 4 -1.269 4.177 10.233 -0.004 -0.005 0.007 -0.000
1284 4 -0.872 6.249 8.701 -0.004 -0.002 0.003 -0.000
1285 4 1.194 4.847 8.678 -0.002 -0.012 0.001 0.000
1286 4 0.779 6.726 10.492 -0.001 -0.006 -0.004 -0.000
1287 4 2.889 4.879 10.263 0.004 0.001 -0.001 0.000
1288 4 2.643 6.833 8.714 0.001 -0.009 -0.001 -0.000
1289 4 4.522 4.665 8.506 -0.001 -0.008 0.008 0.000
1290 4 4.731 6.653 10.385 -0.005 0.001 0.004 -0.000
1291 4 6.853 4.420 10.470 -0.008 0.004 0.003 -0.000
1292 4 6.687 6.326 8.532 -0.003 0.005 0.002 0.000
1293 4 8.391 4.210 8.508 -0.003 0.006 -0.004 -0.000
1294 4 8.389 6.677 10.586 0.000 0.004 -0.004 -0.000
1295 4 10.407 4.692 10.548 -0.007 0.004 0.007 -0.000
1296 4 10.450 6.525 8.662 0.009 0.000 -0.006 -0.000
1297 4 12.270 4.693 8.791 0.000 0.008 0.003 -0.000
1298 4 12.424 6.352 10.519 0.000 -0.002 0.006 -0.000
1299 4 14.092 4.666 10.343 -0.007 0.005 -0.004 -0.000
1300 4 14.547 6.509 8.896 -0.006 -0.005 -0.001 0.000
1323 4 -0.927 8.768 10.761 -0.001 0.003 -0.003 0.000
1324 4 -0.910 10.548 9.093 0.001 -0.000 -0.001 0.000
1325 4 0.628 8.402 8.679 -0.005 -0.011 0.001 0.000
1326 4 0.866 10.063 10.420 -0.008 0.001 0.003 -0.000
1327 4 2.753 8.408 10.577 -0.010 0.005 -0.008 0.000
1328 4 2.864 10.152 8.416 -0.002 -0.007 -0.000 -0.000
1329 4 4.873 8.214 8.262 0.005 0.003 -0.005 0.000
1330 4 4.591 9.707 10.073 0.009 0.010 0.001 -0.000
1331 4 6.659 8.318 10.270 0.004 -0.001 -0.005 0.000
1332 4 6.497 10.275 8.354 0.008 0.005 0.009 -0.000
1333 4 8.282 8.143 8.423 -0.002 -0.001 -0.003 -0.000
1334 4 8.552 10.261 9.990 0.006 0.004 0.000 0.000
1335 4 10.594 8.410 10.163 0.000 0.002 -0.000 -0.000
1336 4 10.464 10.254 8.322 -0.006 0.008 -0.005 -0.000
1337 4 12.497 8.416 8.182 -0.004 0.003 -0.001 0.000
1338 4 12.756 10.307 10.213 -0.009 -0.008 0.000 0.000
1339 4 14.599 8.359 10.383 -0.006 -0.007 -0.002 -0.000
1340 4 14.505 10.410 8.365 0.004 -0.002 0.008 -0.000
1363 4 -1.254 12.113 10.987 -0.002 0.007 -0.004 0.000
1364 4 -0.877 14.087 8.581 -0.008 0.001 0.006 -0.000
1365 4 0.874 11.939 8.508 0.011 -0.005 0.004 0.000
1366 4 0.747 13.848 10.626 0.001 -0.003 -0.005 -0.000
1367 4 2.550 11.471 10.207 -0.003 0.004 -0.005 0.000
1368 4 2.729 13.901 8.741 0.004 -0.006 -0.004 -0.000
1369 4 4.833 12.271 8.239 0.005 0.009 0.007 0.000
1370 4 4.944 14.450 9.978 -0.002 -0.000 -0.001 0.000
1371 4 6.532 12.394 10.058 -0.008 0.011 -0.005 0.000
1372 4 6.661 14.333 8.074 -0.002 0.004 -0.001 0.000
1373 4 8.513 12.607 8.903 0.000 0.001 0.016 -0.000
1374 4 8.591 14.331 10.464 0.014 0.012 -0.000 0.000
1375 4 10.814 12.070 10.238 0.000 -0.006 -0.009 0.000
1376 4 10.691 14.361 8.619 -0.002 -0.000 0.004 0.000
1377 4 12.550 11.943 8.348 -0.003 -0.002 0.002 -0.000
1378 4 12.765 14.002 10.511 -0.001 -0.006 0.003 -0.000
1379 4 14.467 11.925 10.455 0.011 -0.002 -0.004 0.000
1380 4 14.194 14.253 8.451 -0.000 -0.009 0.002 0.000
1604 4 -1.170 -1.466 11.716 0.005 0.011 -0.003 -0.000
1606 4 0.661 -1.145 13.793 -0.000 -0.002 -0.001 -0.000
1608 4 3.135 -1.037 12.258 -0.015 -0.003 0.005 -0.000
1610 4 4.736 -0.936 14.307 0.003 0.000 -0.007 0.000
1612 4 6.522 -1.406 12.445 0.004 0.003 0.004 -0.000
1614 4 8.821 -1.490 14.549 -0.001 0.001 -0.004 0.000
1616 4 10.799 -1.349 12.375 -0.001 0.003 -0.005 0.000
1618 4 12.435 -1.338 14.507 0.001 -0.002 -0.008 -0.000
1620 4 14.396 -1.934 12.525 0.005 0.010 -0.006 0.000
1643 4 -1.362 1.103 14.143 0.003 0.002 0.005 -0.000
1644 4 -1.205 2.442 12.190 -0.003 0.004 -0.016 0.000
1645 4 0.525 0.371 12.083 0.005 -0.001 0.002 -0.000
1646 4 0.952 2.371 14.013 -0.005 0.006 0.004 0.000
1647 4 2.740 0.372 14.066 0.001 -0.003 -0.007 0.000
1648 4 2.654 2.718 11.887 -0.004 0.005 0.004 0.000
1649 4 4.538 0.742 12.187 0.013 0.004 -0.000 0.000
1650 4 4.471 2.486 14.148 0.006 0.002 -0.002 0.000
1651 4 6.999 0.578 14.332 0.000 0.010 0.014 -0.000
1652 4 6.612 2.589 12.732 0.005 0.009 -0.012 0.000
1653 4 8.712 0.201 12.581 0.000 -0.002 -0.002 0.000
1654 4 8.694 2.312 14.424 -0.000 0.002 -0.000 0.000
1655 4 10.638 0.252 14.144 0.002 0.005 0.001 -0.000
1656 4 10.302 2.374 12.834 -0.004 -0.011 0.008 0.000
1657 4 12.743 0.482 12.401 0.012 0.002 -0.010 0.000
1658 4 12.595 2.365 14.020 -0.011 -0.003 0.003 0.000
1659 4 14.242 0.395 14.418 -0.003 -0.005 0.005 -0.000
1660 4 14.132 2.330 12.449 0.002 -0.002 0.008 -0.000
1683 4 -0.986 4.279 13.925 -0.004 -0.003 -0.006 0.000
1684 4 -0.952 6.326 12.242 -0.006 -0.003 -0.009 0.000
1685 4 0.785 4.446 11.906 -0.002 0.002 0.007 0.000
1686 4 0.890 6.222 14.175 0.002 0.005 0.001 -0.000
1687 4 2.893 4.702 14.006 0.007 -0.011 -0.001 0.000
1688 4 2.781 6.649 12.184 0.010 0.000 -0.001 -0.000
1689 4 4.870 4.593 12.399 0.001 -0.008 -0.008 0.000
1690 4 4.581 6.596 14.217 0.005 0.003 0.005 -0.000
1691 4 6.839 4.928 14.268 0.007 -0.004 -0.014 -0.000
1692 4 6.490 6.424 12.303 0.007 0.002 -0.006 0.000
1693 4 8.774 4.854 12.215 -0.005 0.002 0.002 0.000
1694 4 8.716 6.928 13.795 0.010 -0.004 0.001 0.000
1695 4 10.200 4.675 14.323 0.007 0.002 0.009 -0.000
1696 4 10.694 6.978 12.148 0.006 0.001 -0.007 0.000
1697 4 12.224 4.205 12.301 0.002 0.001 -0.002 0.000
1698 4 12.098 6.606 14.139 0.001 0.000 -0.001 -0.000
1699 4 14.045 4.448 13.993 -0.007 0.006 -0.007 -0.000
1700 4 14.128 6.354 11.934 -0.003 -0.010 -0.001 0.000
1723 4 -1.162 8.234 14.439 -0.004 0.000 0.015 -0.000
1724 4 -0.877 10.259 12.616 -0.000 -0.008 -0.009 0.000
1725 4 0.881 8.572 12.577 -0.000 -0.001 0.006 -0.000
1726 4 1.027 10.141 14.454 -0.011 -0.001 -0.001 -0.000
1727 4 2.677 8.156 14.470 0.013 -0.007 -0.007 -0.000
1728 4 2.694 10.131 12.706 0.015 -0.008 -0.010 -0.000
1729 4 4.838 8.624 12.363 0.004 0.007 0.004 0.000
1730 4 4.630 10.284 14.196 0.004 -0.011 -0.007 0.000
1731 4 6.650 8.614 14.194 -0.002 -0.009 0.001 0.000
1732 4 6.797 10.644 11.967 0.009 0.007 0.002 0.000
1733 4 8.605 8.768 12.253 0.001 -0.005 -0.001 -0.000
1734 4 8.705 10.347 14.180 -0.006 -0.005 0.007 0.000
1735 4 10.439 8.665 14.245 0.003 -0.010 -0.014 -0.000
1736 4 10.539 9.860 11.906 0.005 -0.004 0.009 0.000
1737 4 12.625 8.770 12.050 0.011 -0.008 -0.002 -0.000
1738 4 12.088 10.574 14.257 -0.007 -0.001 -0.003 0.000
1739 4 14.324 8.493 13.912 0.001 0.005 0.001 -0.000
1740 4 14.526 10.393 12.445 0.003 -0.001 0.004 0.000
1763 4 -0.814 12.267 14.607 -0.002 0.001 0.001 -0.000
1764 4 -1.085 14.013 12.775 -0.007 0.009 0.005 0.000
1765 4 0.950 11.956 12.510 -0.000 0.004 0.012 -0.000
1766 4 1.316 13.831 14.314 -0.005 -0.001 -0.002 -0.000
1767 4 3.151 12.027 14.265 -0.005 -0.000 0.005 0.000
1768 4 2.593 13.871 12.015 -0.005 0.002 -0.007 0.000
1769 4 4.400 12.354 11.894 0.002 -0.006 0.001 -0.000
1770 4 4.569 14.192 14.406 0.006 -0.007 0.009 -0.000
1771 4 6.435 11.989 13.874 -0.002 0.000 0.006 0.000
1772 4 6.262 13.993 12.307 -0.001 -0.003 0.004 0.000
1773 4 8.789 12.157 12.184 -0.002 -0.009 -0.005 -0.000
1774 4 8.755 14.242 13.709 -0.004 0.006 -0.002 0.000
1775 4 10.738 12.313 14.123 0.000 -0.002 0.004 -0.000
1776 4 10.761 14.224 12.288 -0.003 0.002 -0.001 0.000
1777 4 12.519 12.214 12.322 -0.002 -0.008 0.002 -0.000
1778 4 12.707 14.376 13.991 -0.000 -0.007 -0.012 -0.000
1779 4 14.401 12.019 14.168 0.001 -0.007 -0.001 0.000
1780 4 14.942 14.030 12.260 0.007 0.008 0.002 0.000
2004 4 -1.309 -0.593 16.312 0.008 -0.011 0.006 -0.000
2006 4 0.602 -0.839 18.404 -0.011 0.004 0.006 -0.000
2008 4 2.825 -1.027 15.892 -0.007 -0.008 -0.000 -0.000
2010 4 4.604 -0.750 18.121 0.001 0.005 -0.003 0.000
2012 4 6.768 -1.085 16.300 0.001 -0.002 0.002 0.000
2014 4 8.567 -1.232 18.099 -0.000 0.011 0.002 0.000
2016 4 10.761 -1.482 16.308 0.002 0.005 0.006 -0.000
2018 4 12.371 -1.489 18.240 -0.003 0.004 0.003 -0.000
2020 4 14.112 -1.223 16.472 0.001 -0.003 0.006 -0.000
2043 4 -1.106 0.876 18.137 0.015 0.004 0.003 0.000
2044 4 -0.892 2.981 16.295 0.005 -0.003 -0.008 -0.000
2045 4 1.038 0.956 16.400 0.013 0.005 -0.006 0.000
2046 4 0.793 2.770 18.126 -0.008 -0.012 -0.002 -0.000
2047 4 2.856 1.154 18.178 -0.001 -0.004 -0.006 0.000
2048 4 2.769 3.386 15.987 -0.007 -0.008 -0.003 -0.000
2049 4 4.574 1.073 16.465 -0.003 -0.009 -0.002 -0.000
2050 4 4.687 3.583 17.656 -0.003 -0.001 0.010 0.000
2051 4 6.368 0.979 18.283 0.001 0.000 0.008 0.000
2052 4 6.781 2.684 16.115 0.008 0.002 -0.003 -0.000
2053 4 8.613 0.577 16.115 0.009 0.002 -0.006 -0.000
2054 4 8.927 2.373 17.914 -0.002 -0.014 0.002 -0.000
2055 4 10.604 0.583 17.890 -0.012 0.007 0.009 -0.000
2056 4 10.664 2.505 15.990 0.001 0.000 0.006 -0.000
2057 4 12.261 0.480 15.989 0.011 0.001 0.001 0.000
2058 4 11.986 2.796 17.986 0.005 -0.002 0.011 -0.000
2059 4 13.779 0.986 18.004 -0.005 -0.004 0.009 -0.000
2060 4 14.435 3.019 16.059 0.006 -0.001 0.001 -0.000
2083 4 -1.124 4.829 17.915 -0.003 0.016 -0.002 0.000
2084 4 -1.391 6.706 15.958 -0.004 -0.004 0.003 -0.000
2085 4 0.729 4.911 16.277 -0.011 0.006 0.003 0.000
2086 4 0.747 6.738 18.178 0.008 0.002 -0.001 -0.000
2087 4 2.463 4.477 18.101 0.001 0.004 -0.001 0.000
2088 4 3.414 6.362 16.381 -0.002 -0.007 0.002 -0.000
2089 4 4.911 4.601 15.507 -0.003 -0.006 -0.000 0.000
2090 4 5.078 6.609 18.237 -0.006 -0.002 -0.004 0.000
2091 4 6.939 5.010 17.684 -0.003 -0.001 -0.004 -0.000
2092 4 7.273 6.381 16.021 -0.011 -0.005 0.001 -0.000
2093 4 9.100 4.610 16.199 -0.003 0.002 0.002 -0.000
2094 4 8.800 6.959 17.972 0.002 -0.003 0.001 -0.000
2095 4 10.955 5.383 18.354 0.004 -0.003 0.005 -0.000
2096 4 10.473 6.767 15.969 0.004 0.005 -0.003 -0.000
2097 4 12.170 4.737 15.914 0.009 0.002 0.002 0.000
2098 4 12.844 6.388 17.582 -0.005 -0.010 -0.002 -0.000
2099 4 14.315 4.622 17.947 0.012 0.002 -0.009 0.000
2100 4 14.317 6.394 15.690 -0.004 -0.006 0.011 -0.000
2123 4 -0.837 8.624 17.888 0.005 0.004 0.001 0.000
2124 4 -0.931 10.622 16.408 -0.003 -0.002 -0.000 -0.000
2125 4 0.757 8.068 15.861 -0.007 0.002 0.004 0.000
2126 4 1.043 10.497 17.896 0.008 0.001 -0.009 -0.000
2127 4 2.905 8.496 17.894 0.003 -0.005 0.005 0.000
2128 4 3.004 10.316 16.327 -0.003 -0.000 -0.000 -0.000
2129 4 4.920 8.457 16.131 0.012 -0.005 -0.004 0.000
2130 4 5.095 10.461 17.774 -0.003 0.001 0.008 -0.000
2131 4 6.676 8.533 17.750 0.005 0.011 -0.003 0.000
2132 4 7.253 10.428 16.284 0.004 0.005 -0.002 0.000
2133 4 9.001 8.742 16.129 0.003 -0.001 0.009 0.000
2134 4 8.732 10.131 18.095 -0.001 -0.004 0.013 -0.000
2135 4 11.049 8.255 17.871 0.002 -0.001 0.004 0.000
2136 4 10.797 10.599 16.080 -0.005 0.001 -0.001 -0.000
2137 4 12.689 8.265 15.897 0.007 0.000 0.006 0.000
2138 4 12.531 10.395 17.833 -0.000 -0.008 0.014 -0.000
2139 4 14.348 8.446 18.196 -0.001 -0.007 0.006 0.000
2140 4 14.220 10.013 16.004 0.011 -0.001 -0.005 -0.000
2163 4 -1.244 12.099 18.315 0.005 0.001 0.004 0.000
2164 4 -0.832 14.131 15.901 -0.006 0.001 0.004 0.000
2165 4 1.194 12.291 16.152 0.007 -0.003 -0.008 0.000
2166 4 1.205 13.882 18.272 0.005 -0.004 -0.008 -0.000
2167 4 3.179 12.193 18.172 -0.005 0.004 -0.002 0.000
2168 4 2.979 13.748 16.350 0.001 0.007 -0.004 -0.000
2169 4 4.821 12.389 16.008 0.004 0.001 -0.012 -0.000
2170 4 4.822 14.399 18.075 0.003 -0.017 0.000 -0.000
2171 4 6.600 12.212 18.049 -0.002 -0.007 -0.011 -0.000
2172 4 6.569 14.148 16.037 -0.005 0.001 -0.002 0.000
2173 4 8.679 12.500 15.547 -0.000 0.006 0.002 -0.000
2174 4 8.416 14.206 17.857 -0.013 0.009 0.013 -0.000
2175 4 10.566 12.419 17.679 -0.006 -0.004 -0.002 0.000
2176 4 10.753 14.343 15.844 0.001 0.007 0.007 0.000
2177 4 12.385 12.429 15.822 -0.001 0.003 0.000 -0.000
2178 4 12.761 13.920 17.722 0.006 -0.002 0.001 -0.000
2179 4 14.312 11.793 17.901 0.000 0.001 0.002 0.000
2180 4 14.771 13.861 15.967 0.014 0.009 -0.006 0.000
2404 4 -0.976 -0.860 20.076 -0.001 -0.007 -0.001 0.000
2408 4 2.604 -0.853 19.771 -0.007 0.004 -0.007 -0.000
2412 4 6.738 -1.328 19.735 -0.006 0.008 -0.006 0.000
2416 4 10.661 -1.229 19.934 0.004 -0.002 0.000 0.000
2420 4 14.289 -1.097 20.042 0.003 -0.002 -0.002 -0.000
2444 4 -1.307 3.021 19.548 -0.002 0.009 -0.002 -0.000
2445 4 0.647 0.969 20.064 0.005 -0.018 0.004 0.000
2448 4 2.496 2.976 20.734 0.008 -0.001 0.012 -0.000
2449 4 4.734 1.480 20.073 -0.003 -0.005 0.004 -0.000
2452 4 6.634 3.189 19.914 -0.004 0.008 -0.003 -0.000
2453 4 8.657 0.458 20.107 0.007 -0.007 0.001 0.000
2456 4 10.936 2.443 20.039 -0.002 -0.010 0.004 -0.000
2457 4 12.379 0.511 19.895 0.005 -0.006 -0.002 0.000
2460 4 13.876 3.195 20.081 0.003 -0.009 0.004 -0.000
2484 4 -1.324 6.619 20.043 -0.011 -0.001 0.005 0.000
2485 4 0.714 4.711 20.076 -0.004 0.017 0.003 0.000
2488 4 2.751 7.157 19.800 -0.007 -0.004 0.003 0.000
2489 4 4.268 4.785 20.003 0.004 -0.003 -0.001 -0.000
2492 4 6.985 6.674 19.817 0.000 -0.012 0.001 0.000
2493 4 8.961 4.335 20.092 0.001 -0.003 -0.001 -0.000
2496 4 10.504 6.901 19.961 -0.001 -0.003 -0.003 -0.000
2497 4 12.329 4.580 19.979 0.009 -0.003 0.005 0.000
2500 4 14.292 6.426 19.881 -0.004 0.012 0.016 -0.000
2524 4 -1.203 10.258 20.015 0.002 -0.005 0.004 -0.000
2525 4 0.982 9.009 19.962 -0.001 -0.004 -0.002 -0.000
2528 4 2.991 10.238 20.204 -0.001 0.006 -0.012 0.000
2529 4 5.157 8.726 20.205 0.003 -0.014 -0.002 -0.000
2532 4 7.042 10.231 20.092 0.002 -0.003 0.004 0.000
2533 4 8.588 8.324 20.120 -0.004 0.002 -0.001 0.000
2536 4 10.565 10.108 19.850 0.002 -0.002 -0.001 -0.000
2537 4 12.494 8.219 19.954 -0.005 0.000 0.004 0.000
2540 4 14.096 10.334 20.006 0.010 0.006 -0.002 -0.000
2564 4 -1.242 14.087 19.832 0.008 -0.008 -0.000 0.000
2565 4 0.888 11.970 20.086 -0.001 0.003 -0.006 -0.000
2568 4 2.881 14.142 20.142 0.001 -0.011 -0.006 0.000
2569 4 4.875 12.016 20.071 -0.003 -0.007 -0.005 -0.000
2572 4 6.531 14.003 19.912 0.000 -0.001 -0.011 0.000
2573 4 8.580 12.126 19.993 -0.003 -0.005 0.001 0.000
2576 4 10.189 13.948 19.827 -0.013 -0.006 0.005 -0.000
2577 4 12.173 12.277 19.871 0.002 -0.001 -0.006 0.000
2580 4 14.495 14.105 20.131 -0.001 0.001 0.003 -0.000
2454 4 9.129 2.407 21.785 -0.002 -0.003 -0.004 0.000
2538 4 12.577 10.287 21.989 -0.009 -0.004 -0.007 0.000
2578 4 12.457 14.072 22.011 -0.004 -0.004 0.001 0.000
2530 4 4.863 10.581 21.974 0.002 0.001 -0.001 0.000
2523 4 -1.309 8.322 21.488 -0.004 0.003 -0.003 -0.000
2406 4 0.787 -1.111 21.775 -0.007 0.003 0.010 -0.000
2567 4 2.857 12.049 21.578 -0.010 -0.006 0.003 -0.000
2527 4 3.091 8.225 22.028 0.003 0.002 0.007 -0.000
2487 4 2.833 5.321 21.579 -0.004 -0.001 -0.001 -0.000
2575 4 10.664 12.264 21.985 -0.002 0.000 -0.003 0.000
2579 4 14.315 12.182 21.883 -0.005 0.002 0.006 -0.000
2450 4 4.495 3.217 22.070 0.001 -0.001 -0.012 0.000
2418 4 12.568 -1.126 21.998 -0.003 0.002 -0.004 -0.000
2498 4 12.474 6.434 21.979 -0.000 -0.008 -0.002 -0.000
2410 4 4.757 -0.813 21.689 0.000 -0.007 0.002 0.000
2563 4 -0.918 12.110 21.587 0.006 -0.002 -0.003 -0.000
2526 4 0.901 10.170 21.955 -0.005 -0.002 0.006 0.000
2486 4 1.043 7.025 21.745 -0.000 -0.000 -0.003 0.000
2451 4 6.980 0.671 21.802 -0.000 -0.011 0.001 -0.000
2414 4 8.694 -1.159 21.743 0.009 -0.002 -0.001 0.000
2531 4 7.014 8.314 21.965 0.007 0.005 -0.002 -0.000
2483 4 -0.658 4.977 21.909 -0.002 0.001 0.002 -0.000
2443 4 -0.975 0.714 21.862 0.001 -0.008 -0.002 -0.000
2491 4 7.077 5.091 21.788 0.001 -0.003 0.001 -0.000
2539 4 14.543 7.735 21.916 0.009 0.004 -0.018 0.000
2459 4 14.320 1.049 21.944 -0.008 0.004 0.001 -0.000
2447 4 2.728 0.773 21.459 -0.005 0.007 -0.003 -0.000
2458 4 12.500 2.523 21.963 0.008 0.007 -0.009 0.000
2566 4 0.755 14.112 21.577 -0.003 -0.005 0.004 0.000
2446 4 0.535 2.813 22.233 -0.015 0.003 0.001 0.000
2499 4 14.794 4.848 21.673 0.006 0.001 -0.001 0.000
2495 4 10.695 4.089 22.107 0.001 -0.000 0.002 -0.000
2494 4 9.114 6.194 21.713 -0.003 -0.001 0.001 0.000
2490 4 5.233 6.648 21.817 0.002 -0.008 -0.003 0.000
2455 4 10.814 0.728 21.918 0.009 0.000 0.010 -0.000
2535 4 10.562 8.212 21.864 -0.001 -0.005 -0.000 0.000
2534 4 8.899 10.493 22.053 -0.002 0.004 -0.006 -0.000
1622 4 16.145 -1.542 14.449 0.000 -0.001 0.003 -0.000
2574 4 8.305 13.557 21.877 0.007 0.000 -0.003 -0.000
2062 4 16.105 2.743 18.255 0.008 -0.006 -0.004 -0.000
2570 4 4.810 13.990 21.566 -0.002 -0.003 -0.002 0.000
2571 4 6.800 11.882 21.751 0.001 -0.001 0.006 -0.000
462 4 15.905 2.430 3.121 -0.004 -0.005 0.011 -0.000
2061 4 15.703 0.627 15.934 0.002 -0.005 -0.003 0.000
1222 4 15.819 -1.578 10.369 -0.003 0.003 0.006 -0.000
422 4 15.994 -1.361 3.035 -0.001 0.002 0.005 -0.000
97 4 12.649 4.561 -2.836 -0.007 0.006 -0.000 0.000
2411 4 6.503 -3.004 21.646 -0.003 -0.003 -0.008 0.000
813 4 8.796 -3.138 4.808 0.004 -0.009 -0.003 -0.000
501 4 15.989 4.194 1.146 -0.002 0.003 -0.004 0.000
2409 4 4.454 -2.444 19.352 0.008 0.004 -0.000 -0.000
88 4 3.118 6.554 -2.789 0.000 0.012 0.007 0.000
2209 4 4.594 16.035 16.127 -0.003 0.004 0.001 -0.000
2405 4 0.905 -2.938 19.704 0.004 0.009 0.002 0.000
129 4 4.391 8.512 -2.413 0.004 -0.012 -0.002 0.000
402 4 -2.812 -1.539 2.863 -0.005 -0.003 0.013 0.000
122 4 -2.578 10.181 -1.085 0.007 -0.001 -0.000 0.000
2407 4 2.799 -2.933 21.354 -0.002 0.003 0.001 -0.000
861 4 16.071 0.598 4.754 0.002 -0.001 -0.005 -0.000
102 4 15.834 6.473 -0.414 -0.005 0.004 -0.005 -0.000
1605 4 1.004 -3.127 11.949 -0.005 -0.006 0.006 -0.000
84 4 -0.766 6.445 -2.828 0.009 -0.007 -0.002 -0.000
4 4 -1.275 -1.028 -2.781 -0.003 -0.002 -0.008 -0.000
2007 4 2.329 -2.507 17.976 -0.002 0.009 0.005 0.000
541 4 15.811 8.360 0.996 0.001 0.003 0.000 -0.000
2009 4 4.653 -2.738 16.359 0.000 -0.007 0.004 -0.000
415 4 10.492 -3.067 3.091 0.001 -0.007 0.008 -0.000
53 4 8.354 0.787 -2.703 -0.007 -0.003 -0.008 0.000
16 4 10.089 -1.008 -2.694 0.004 0.004 -0.002 0.000
62 4 16.125 2.761 -0.730 0.009 -0.003 -0.011 -0.000
2461 4 15.729 1.083 19.987 0.005 0.012 0.000 0.000
522 4 -2.839 10.136 3.110 0.002 -0.006 -0.000 -0.000
1607 4 2.747 -3.060 13.746 -0.000 -0.000 0.013 -0.000
85 4 0.864 4.561 -2.818 -0.008 -0.000 -0.001 0.000
56 4 10.322 2.700 -2.758 0.005 0.004 -0.007 -0.000
461 4 16.095 0.524 1.478 0.008 -0.000 0.001 -0.000
1261 4 15.881 0.738 8.151 0.007 -0.005 0.003 0.000
862 4 16.138 2.509 6.287 0.013 0.001 -0.008 0.000
521 4 -2.843 7.989 0.838 -0.000 -0.002 -0.003 -0.000
2403 4 -0.977 -3.081 22.090 -0.005 -0.001 -0.001 0.000
2005 4 0.816 -2.830 15.750 0.001 -0.002 0.008 -0.000
542 4 16.053 10.258 3.072 -0.003 0.001 0.001 -0.000
442 4 -2.669 2.539 2.882 -0.004 -0.005 -0.003 0.000
1282 4 -2.807 6.320 10.109 -0.005 0.000 0.004 0.000
1415 4 10.653 15.969 10.567 0.001 0.003 0.007 -0.000