ITEM: TIMESTEP
38000
ITEM: NUMBER OF ATOMS
32000
ITEM: BOX BOUNDS pp pp pp
-3.082767 73.562767
-3.099592 73.579592
-2.851715 73.331715
ITEM: ATOMS id type x y z vx vy vz q
6 4 0.565 -1.037 -1.186 -0.001 -0.001 0.002 -0.000
10 4 4.274 -1.498 -1.038 0.004 -0.005 0.003 0.000
14 4 8.483 -1.613 -0.944 0.005 0.005 -0.008 -0.000
18 4 12.033 -1.158 -0.904 0.006 -0.007 -0.006 0.000
43 4 -1.496 0.428 -1.032 -0.002 -0.003 -0.015 -0.000
46 4 0.129 2.317 -1.239 0.004 0.002 -0.006 -0.000
47 4 2.420 0.601 -1.211 0.008 -0.001 0.002 -0.000
50 4 4.537 2.680 -1.199 0.008 0.003 -0.001 -0.000
51 4 6.593 0.601 -0.892 -0.002 -0.006 -0.001 -0.000
54 4 8.518 2.770 -1.129 0.002 0.001 0.007 -0.000
55 4 10.168 0.346 -0.619 -0.006 0.002 -0.002 -0.000
58 4 12.011 2.416 -1.097 0.002 0.007 0.008 0.000
59 4 14.254 0.504 -1.120 0.007 0.006 -0.005 0.000
83 4 -1.273 4.143 -1.242 0.006 -0.009 0.004 0.000
86 4 0.426 6.461 -1.237 -0.000 -0.007 -0.007 0.000
87 4 2.631 4.875 -1.160 0.004 0.006 0.007 0.000
90 4 4.569 6.458 -0.649 0.013 -0.003 0.000 0.000
91 4 6.744 4.766 -1.047 -0.002 0.012 -0.003 -0.000
94 4 8.563 6.801 -1.305 0.001 0.005 -0.009 -0.000
95 4 10.310 4.467 -0.830 -0.005 0.006 0.003 -0.000
98 4 12.348 6.081 -0.898 -0.005 -0.009 0.007 -0.000
99 4 14.108 3.982 -1.010 0.002 0.003 -0.002 0.000
123 4 -1.157 8.404 -1.200 -0.006 0.002 -0.005 0.000
126 4 0.679 10.705 -1.346 0.003 -0.007 -0.000 -0.000
127 4 2.104 8.124 -1.536 0.001 -0.008 0.008 -0.000
130 4 4.413 10.593 -1.446 0.004 0.001 0.004 -0.000
131 4 6.560 8.589 -0.985 -0.002 0.003 0.011 0.000
134 4 8.493 10.023 -1.122 -0.001 -0.004 -0.001 0.000
135 4 10.602 8.209 -1.164 0.008 0.002 0.004 -0.000
138 4 12.211 9.807 -1.333 0.001 -0.001 0.001 -0.000
139 4 14.179 8.114 -0.884 -0.006 -0.006 0.007 -0.000
163 4 -1.095 12.435 -1.058 -0.001 0.007 0.010 0.000
166 4 1.076 14.377 -0.897 0.006 0.005 -0.007 0.000
167 4 2.884 12.640 -1.211 0.008 0.005 0.006 -0.000
170 4 4.868 14.457 -1.126 0.008 -0.002 0.001 0.000
171 4 6.448 12.117 -0.789 0.011 0.010 -0.010 -0.000
174 4 8.173 13.887 -1.122 -0.007 0.001 0.005 -0.000
175 4 10.163 12.093 -1.153 -0.005 -0.005 -0.002 0.000
178 4 12.429 14.177 -0.947 0.001 0.002 -0.005 -0.000
179 4 13.836 11.710 -1.017 -0.006 -0.008 -0.002 0.000
404 4 -1.532 -1.499 0.662 -0.002 -0.004 -0.003 -0.000
406 4 0.529 -1.249 2.272 -0.000 -0.000 0.001 0.000
408 4 2.612 -1.223 0.684 0.003 -0.002 -0.006 0.000
410 4 4.456 -1.426 2.746 -0.015 0.005 -0.005 0.000
412 4 6.259 -1.240 0.339 -0.012 0.001 0.013 -0.000
414 4 8.192 -1.337 3.082 -0.001 -0.009 -0.002 -0.000
416 4 10.162 -1.369 0.960 -0.003 -0.005 0.006 -0.000
418 4 11.979 -1.126 2.732 -0.004 -0.003 0.006 -0.000
420 4 14.032 -1.072 1.314 -0.002 0.007 -0.010 -0.000
443 4 -1.548 0.594 2.607 0.008 -0.008 0.010 -0.000
444 4 -1.238 2.188 0.784 0.006 -0.012 -0.008 -0.000
445 4 0.638 0.789 0.988 0.004 0.001 0.008 -0.000
446 4 0.541 2.844 2.640 -0.010 0.005 -0.000 0.000
447 4 2.619 0.584 3.123 0.005 -0.000 -0.003 0.000
448 4 2.530 2.803 0.350 0.008 0.003 0.003 0.000
449 4 4.429 0.673 0.657 0.008 0.008 -0.010 0.000
450 4 4.539 2.175 2.527 0.005 0.002 -0.008 0.000
451 4 6.428 0.695 3.057 0.005 -0.004 0.003 0.000
452 4 6.573 2.744 0.622 0.003 -0.007 0.014 -0.000
453 4 8.217 0.592 1.440 0.011 -0.002 0.002 -0.000
454 4 8.425 2.553 3.030 0.005 0.003 0.001 0.000
455 4 10.082 0.639 3.173 -0.003 0.000 0.016 -0.000
456 4 10.273 2.355 0.730 -0.004 -0.012 0.009 -0.000
457 4 12.486 0.930 0.602 -0.002 -0.003 -0.001 0.000
458 4 12.139 2.365 2.905 0.004 -0.009 -0.000 0.000
459 4 14.360 1.076 2.461 0.007 -0.003 -0.003 -0.000
460 4 14.252 2.647 0.840 0.004 -0.004 0.001 0.000
483 4 -1.702 4.363 2.927 -0.002 -0.000 -0.000 0.000
484 4 -1.315 6.035 0.792 -0.008 0.004 0.002 0.000
485 4 0.540 4.311 0.398 -0.004 0.009 0.010 0.000
486 4 0.708 6.732 2.544 -0.005 -0.005 0.009 0.000
487 4 2.261 4.603 2.261 -0.007 0.000 0.005 0.000
488 4 2.318 6.643 0.656 -0.001 0.001 0.008 0.000
489 4 4.520 4.502 0.566 -0.003 -0.005 -0.008 0.000
490 4 4.484 6.628 2.358 -0.011 -0.001 -0.006 0.000
491 4 6.515 4.421 2.534 -0.003 -0.004 0.003 0.000
492 4 6.574 6.372 0.957 -0.005 0.003 0.002 -0.000
493 4 8.575 4.576 0.854 -0.016 0.006 0.005 -0.000
494 4 8.461 6.449 2.791 0.016 0.002 0.005 -0.000
495 4 10.240 4.469 2.763 0.001 0.002 0.001 0.000
496 4 10.472 6.337 1.230 0.013 0.016 -0.003 -0.000
497 4 12.494 4.431 1.092 -0.000 -0.001 -0.000 0.000
498 4 12.642 6.203 2.929 0.009 -0.005 -0.010 0.000
499 4 13.988 3.936 2.916 0.003 -0.006 0.004 0.000
500 4 14.313 6.109 0.536 -0.006 0.014 0.006 -0.000
523 4 -1.395 8.035 2.233 -0.003 0.006 0.013 0.000
524 4 -1.024 10.337 0.769 -0.000 0.005 0.008 0.000
525 4 0.542 8.238 0.798 0.004 0.012 0.003 0.000
526 4 1.170 10.248 2.829 -0.010 0.004 -0.004 -0.000
527 4 2.610 8.341 2.810 0.003 0.001 -0.001 0.000
528 4 2.349 9.946 0.722 0.001 -0.000 0.006 -0.000
529 4 4.687 8.864 0.656 0.008 0.002 0.007 -0.000
530 4 4.421 10.480 2.791 0.007 0.005 -0.007 -0.000
531 4 6.511 8.391 2.702 0.000 0.003 -0.005 -0.000
532 4 6.496 10.593 1.260 0.003 -0.001 0.001 -0.000
533 4 8.603 8.178 0.849 0.004 0.008 0.004 -0.000
534 4 8.567 10.303 2.894 0.004 -0.001 0.000 -0.000
535 4 10.207 8.386 3.012 0.003 0.009 0.009 0.000
536 4 10.160 9.945 0.556 0.014 -0.002 0.007 0.000
537 4 12.226 7.933 1.363 0.006 0.000 -0.006 -0.000
538 4 12.049 10.760 2.848 -0.005 0.009 -0.008 0.000
539 4 14.325 7.943 2.930 -0.006 0.006 0.003 -0.000
540 4 13.693 10.215 0.930 -0.000 -0.001 -0.001 -0.000
563 4 -1.072 12.240 2.696 0.011 0.004 0.003 0.000
564 4 -0.910 14.369 0.846 0.001 -0.009 -0.002 0.000
565 4 0.935 12.226 0.513 -0.005 -0.007 -0.002 0.000
566 4 0.567 13.908 2.543 0.002 -0.003 0.005 0.000
567 4 2.587 12.236 3.145 0.008 0.003 -0.003 0.000
568 4 2.604 14.230 1.102 -0.000 0.007 -0.000 0.000
569 4 4.423 12.112 1.104 0.007 0.003 -0.007 -0.000
570 4 4.394 14.448 2.575 0.001 0.009 0.008 0.000
571 4 6.026 12.613 2.897 -0.001 -0.005 0.007 -0.000
572 4 6.339 14.486 0.967 -0.014 -0.010 -0.003 0.000
573 4 8.359 12.197 0.922 -0.001 -0.000 -0.002 -0.000
574 4 7.905 14.351 3.041 -0.001 0.006 -0.012 -0.000
575 4 10.209 12.419 2.833 -0.001 -0.010 0.010 -0.000
576 4 10.017 14.176 0.997 -0.001 -0.007 -0.012 -0.000
577 4 11.856 12.443 0.805 -0.005 -0.006 0.004 0.000
578 4 12.517 14.164 2.816 -0.005 -0.011 0.019 -0.000
579 4 13.868 12.544 2.573 0.001 0.002 0.004 0.000
580 4 14.578 14.362 1.337 0.010 -0.008 0.001 -0.000
804 4 -0.893 -1.365 4.803 -0.008 0.002 0.000 0.000
806 4 1.254 -1.136 6.729 0.004 -0.004 0.006 -0.000
808 4 2.729 -1.502 4.477 0.005 0.002 0.006 0.000
810 4 4.209 -1.187 6.668 -0.006 -0.000 -0.001 -0.000
812 4 6.123 -1.236 5.005 -0.007 -0.003 -0.009 -0.000
814 4 8.256 -1.208 6.978 -0.000 -0.001 0.004 -0.000
816 4 9.964 -1.380 4.891 -0.000 -0.001 0.001 -0.000
818 4 12.114 -1.066 6.917 0.004 0.012 -0.009 -0.000
820 4 13.980 -0.499 4.390 0.014 -0.002 -0.004 -0.000
843 4 -1.257 0.941 6.390 -0.010 -0.001 -0.003 0.000
844 4 -1.213 2.673 4.351 0.003 0.002 0.006 0.000
845 4 0.679 0.583 3.960 -0.004 -0.002 0.008 -0.000
846 4 0.891 2.533 6.518 0.002 -0.007 -0.014 -0.000
847 4 2.456 0.967 6.075 -0.001 -0.002 0.010 -0.000
848 4 2.683 2.808 4.159 -0.010 -0.010 -0.004 0.000
849 4 4.415 0.398 4.358 0.002 -0.007 0.005 0.000
850 4 4.149 3.023 6.423 0.001 -0.009 0.006 -0.000
851 4 5.426 0.898 6.662 0.006 0.011 0.004 -0.000
852 4 6.322 2.726 4.997 -0.010 -0.004 -0.003 0.000
853 4 8.127 0.393 4.926 0.016 0.002 -0.001 -0.000
854 4 8.028 3.232 7.015 0.003 0.009 0.005 -0.000
855 4 10.047 0.518 6.745 0.002 0.003 -0.002 -0.000
856 4 10.066 2.517 4.799 -0.003 -0.002 0.001 0.000
857 4 12.064 0.753 4.750 -0.001 0.002 0.003 -0.000
858 4 11.815 2.465 6.459 0.003 0.021 -0.005 0.000
859 4 13.975 0.296 6.610 -0.001 0.002 -0.006 0.000
860 4 14.205 2.463 4.779 0.000 -0.001 0.003 -0.000
883 4 -1.094 4.829 6.401 -0.002 -0.002 0.004 -0.000
884 4 -1.385 6.325 4.452 0.012 -0.001 -0.005 0.000
885 4 0.783 4.386 4.518 0.011 0.003 -0.002 0.000
886 4 0.415 6.573 6.813 -0.001 -0.004 -0.004 -0.000
887 4 2.451 4.879 6.337 0.009 -0.005 0.005 -0.000
888 4 2.816 6.365 4.674 -0.001 -0.002 0.011 0.000
889 4 4.391 4.170 3.893 0.007 0.001 0.000 0.000
890 4 4.289 6.488 6.598 -0.005 -0.003 0.005 0.000
891 4 5.605 4.869 6.257 0.000 -0.010 -0.003 -0.000
892 4 6.045 6.269 4.305 -0.000 -0.011 -0.006 0.000
893 4 7.937 4.721 4.494 0.003 0.006 0.003 0.000
894 4 7.902 5.991 6.547 0.007 -0.004 -0.004 -0.000
895 4 9.944 4.711 6.430 -0.001 -0.000 -0.001 0.000
896 4 10.275 6.307 4.649 -0.005 -0.004 0.004 0.000
897 4 12.232 4.303 4.724 0.004 0.002 0.016 0.000
898 4 11.967 6.843 6.395 0.002 -0.011 0.006 0.000
899 4 14.002 4.301 6.932 0.000 0.003 -0.000 0.000
900 4 14.095 6.511 5.140 0.004 0.003 0.004 0.000
923 4 -1.046 8.450 6.506 -0.002 0.002 0.005 -0.000
924 4 -1.116 9.902 4.193 0.008 -0.004 -0.001 -0.000
925 4 0.609 8.069 4.342 0.001 -0.002 -0.009 0.000
926 4 0.762 10.511 6.316 -0.009 0.003 -0.004 0.000
927 4 2.107 8.426 6.570 -0.003 -0.001 -0.002 0.000
928 4 2.693 10.120 4.812 -0.002 0.010 0.003 0.000
929 4 4.496 8.377 4.637 0.005 0.004 0.001 0.000
930 4 4.626 9.914 6.514 0.004 0.002 -0.004 0.000
931 4 6.313 8.398 6.396 0.003 0.009 -0.003 -0.000
932 4 6.349 10.590 4.358 -0.006 -0.004 -0.001 -0.000
933 4 7.927 8.347 4.777 -0.002 0.008 0.002 -0.000
934 4 8.049 10.327 6.728 -0.000 -0.004 0.005 -0.000
935 4 10.139 8.453 6.268 -0.001 -0.000 0.007 -0.000
936 4 10.337 10.354 4.938 0.002 -0.003 -0.001 0.000
937 4 12.329 8.503 4.400 0.005 0.001 0.004 0.000
938 4 12.907 10.180 6.307 0.009 -0.002 0.007 0.000
939 4 14.278 8.518 6.353 0.003 -0.006 0.005 0.000
940 4 14.214 10.379 4.097 -0.001 -0.000 -0.007 0.000
963 4 -1.158 12.244 7.193 0.009 0.008 0.001 -0.000
964 4 -0.978 14.350 4.668 -0.008 0.002 -0.002 -0.000
965 4 0.473 12.342 4.528 0.007 -0.009 0.003 -0.000
966 4 0.281 14.261 6.901 -0.001 0.000 0.011 -0.000
967 4 2.505 12.345 6.594 0.001 -0.000 0.001 0.000
968 4 2.629 14.326 5.134 0.005 0.001 0.004 0.000
969 4 4.438 12.210 4.827 0.013 0.006 -0.003 0.000
970 4 4.247 14.265 6.911 0.005 0.015 0.002 0.000
971 4 6.266 11.992 6.858 0.003 0.005 -0.005 0.000
972 4 6.319 14.078 5.083 -0.001 -0.009 0.002 -0.000
973 4 8.195 12.139 4.823 -0.002 0.006 -0.004 -0.000
974 4 8.544 13.942 6.629 -0.004 0.001 0.001 -0.000
975 4 10.411 12.274 6.494 0.010 -0.003 0.007 -0.000
976 4 10.344 14.083 5.001 0.002 -0.002 0.001 -0.000
977 4 12.213 12.272 4.838 -0.001 0.003 -0.007 0.000
978 4 12.212 14.239 6.724 -0.001 0.003 0.007 0.000
979 4 14.338 12.507 7.091 -0.008 0.004 0.001 0.000
980 4 13.991 14.551 4.950 0.002 0.006 0.004 0.000
1204 4 -1.384 -1.336 8.903 0.005 -0.005 -0.007 0.000
1206 4 0.315 -1.301 10.726 -0.007 -0.000 -0.002 -0.000
1208 4 2.377 -1.093 9.012 -0.000 -0.009 -0.008 -0.000
1210 4 4.087 -0.793 10.427 0.002 0.009 0.000 0.000
1212 4 6.140 -1.030 8.745 0.002 0.007 0.000 0.000
1214 4 8.032 -1.011 10.468 0.003 -0.005 0.002 0.000
1216 4 10.124 -1.192 8.602 -0.010 -0.004 0.001 -0.000
1218 4 13.071 -1.291 9.990 -0.006 -0.003 0.003 -0.000
1220 4 14.763 -0.799 8.351 0.001 -0.001 -0.002 0.000
1243 4 -1.145 0.774 10.554 0.000 -0.005 0.002 0.000
1244 4 -1.304 2.693 8.346 0.017 0.001 -0.012 0.000
1245 4 0.567 0.963 8.410 0.004 -0.010 0.001 0.000
1246 4 0.342 2.910 10.233 0.001 -0.001 0.000 0.000
1247 4 2.177 0.983 10.179 0.003 0.005 0.010 0.000
1248 4 2.617 2.765 8.040 -0.002 -0.011 0.001 -0.000
1249 4 4.427 0.912 8.741 -0.001 0.009 -0.002 0.000
1250 4 3.932 2.743 10.169 0.010 0.001 -0.000 0.000
1251 4 6.127 0.910 10.314 0.006 0.009 0.006 0.000
1252 4 6.036 2.707 8.533 0.005 -0.002 0.002 -0.000
1253 4 7.953 0.816 8.364 -0.000 0.000 -0.003 -0.000
1254 4 8.341 2.519 10.054 0.000 -0.000 -0.002 0.000
1255 4 10.019 0.882 10.296 0.009 -0.005 -0.014 -0.000
1256 4 9.841 2.722 8.315 -0.007 0.000 -0.005 0.000
1257 4 12.074 0.551 8.798 0.003 0.008 0.007 -0.000
1258 4 11.934 2.498 10.303 -0.003 0.004 0.000 0.000
1259 4 13.824 0.853 10.517 -0.002 -0.005 0.001 -0.000
1260 4 13.851 2.538 8.598 -0.009 -0.005 -0.005 0.000
1283 4 -1.100 4.314 10.726 0.010 -0.004 -0.002 -0.000
1284 4 -0.928 6.267 8.563 0.012 0.014 -0.003 -0.000
1285 4 0.860 4.481 8.450 0.002 0.001 0.006 -0.000
1286 4 0.428 6.036 10.624 -0.011 0.006 -0.001 0.000
1287 4 2.428 4.939 10.519 0.004 0.015 -0.008 0.000
1288 4 2.494 6.569 8.380 0.008 0.002 -0.002 0.000
1289 4 4.406 4.702 8.649 -0.006 -0.012 0.001 -0.000
1290 4 4.623 6.444 10.660 -0.003 -0.009 0.009 0.000
1291 4 6.718 4.429 10.836 -0.001 -0.003 -0.014 0.000
1292 4 6.273 6.402 8.709 -0.004 -0.008 -0.001 -0.000
1293 4 8.250 4.955 8.840 0.002 -0.008 0.012 0.000
1294 4 8.134 6.460 11.008 -0.011 0.008 -0.007 0.000
1295 4 10.350 4.239 10.611 0.019 0.004 0.000 0.000
1296 4 10.275 6.770 8.261 -0.003 -0.000 -0.007 0.000
1297 4 11.929 4.132 8.428 0.003 0.014 0.011 0.000
1298 4 12.091 6.722 10.027 -0.003 -0.008 -0.003 0.000
1299 4 14.543 4.336 10.277 -0.006 -0.004 -0.003 -0.000
1300 4 14.250 6.192 8.176 0.003 -0.006 0.011 -0.000
1323 4 -1.236 8.193 10.713 -0.002 0.009 0.006 0.000
1324 4 -1.085 10.442 8.743 -0.002 0.004 0.002 0.000
1325 4 0.773 8.269 8.660 -0.014 0.001 -0.004 0.000
1326 4 0.818 10.198 10.516 -0.001 0.009 -0.004 0.000
1327 4 2.590 8.208 10.657 -0.004 0.009 -0.005 0.000
1328 4 2.551 10.129 8.536 -0.004 -0.002 0.005 0.000
1329 4 4.429 8.143 8.505 -0.005 -0.001 0.001 0.000
1330 4 4.715 10.078 10.447 -0.001 -0.005 0.001 -0.000
1331 4 6.537 8.275 10.273 0.010 0.004 0.002 -0.000
1332 4 6.206 10.045 8.627 0.001 0.002 0.002 -0.000
1333 4 7.851 8.250 8.272 -0.003 0.004 -0.002 -0.000
1334 4 8.382 10.207 9.976 -0.001 0.001 0.001 -0.000
1335 4 9.838 8.339 10.238 0.005 -0.002 0.000 0.000
1336 4 10.299 10.160 8.184 -0.006 -0.002 -0.012 -0.000
1337 4 12.604 8.532 8.334 0.004 0.003 -0.004 -0.000
1338 4 12.480 10.328 10.208 -0.003 0.002 0.006 -0.000
1339 4 14.251 8.182 10.829 -0.008 -0.001 0.000 -0.000
1340 4 14.502 10.315 8.512 0.003 0.003 -0.007 -0.000
1363 4 -1.645 12.665 9.902 0.009 -0.001 0.003 -0.000
1364 4 -1.260 14.702 8.456 -0.012 -0.003 -0.002 -0.000
1365 4 0.728 11.976 8.980 -0.011 0.005 -0.005 -0.000
1366 4 0.545 14.288 9.884 -0.002 0.001 -0.013 -0.000
1367 4 2.753 12.210 10.010 0.003 0.006 -0.002 -0.000
1368 4 2.437 14.344 8.473 0.001 0.010 0.013 -0.000
1369 4 4.429 12.115 8.569 -0.008 0.001 0.005 0.000
1370 4 4.202 14.257 10.135 0.006 -0.007 0.006 -0.000
1371 4 6.251 12.312 10.125 0.007 0.015 -0.010 -0.000
1372 4 6.418 14.210 8.436 0.006 0.008 0.005 0.000
1373 4 8.382 12.559 8.378 -0.010 0.004 0.012 -0.000
1374 4 8.412 14.123 10.318 -0.003 0.002 0.006 0.000
1375 4 10.362 12.515 10.236 0.005 -0.001 -0.003 -0.000
1376 4 10.200 14.401 8.647 -0.007 0.011 0.007 0.000
1377 4 12.305 12.667 8.420 -0.005 -0.001 -0.005 -0.000
1378 4 12.338 14.394 10.546 0.008 0.001 0.000 -0.000
1379 4 14.379 12.426 10.078 -0.002 0.001 0.007 -0.000
1380 4 14.034 14.490 8.544 0.001 -0.003 0.001 0.000
1604 4 -1.316 -1.475 12.389 0.003 -0.003 0.011 -0.000
1606 4 0.816 -1.054 14.532 -0.000 -0.012 0.003 -0.000
1608 4 2.209 -0.964 12.115 0.010 -0.008 -0.003 -0.000
1610 4 4.496 -0.265 14.739 0.004 -0.007 -0.005 -0.000
1612 4 6.233 -0.913 12.449 0.004 0.013 0.002 0.000
1614 4 7.979 -1.279 14.313 0.000 0.006 -0.009 -0.000
1616 4 9.992 -0.546 12.437 0.003 -0.011 -0.002 -0.000
1618 4 12.159 -1.411 14.140 0.004 -0.001 -0.005 0.000
1620 4 14.151 -1.182 12.231 -0.003 -0.003 0.007 0.000
1643 4 -0.901 0.816 14.742 -0.008 0.016 -0.002 -0.000
1644 4 -1.132 2.499 12.299 -0.004 -0.008 -0.009 -0.000
1645 4 0.770 0.802 12.692 -0.001 0.007 0.003 -0.000
1646 4 0.601 2.657 14.406 0.011 0.010 -0.001 -0.000
1647 4 2.473 0.767 14.206 -0.008 0.004 0.003 -0.000
1648 4 2.099 2.516 12.275 0.002 -0.007 0.002 0.000
1649 4 4.440 1.452 12.387 0.007 -0.004 0.005 0.000
1650 4 4.355 2.688 14.528 -0.000 -0.002 0.005 -0.000
1651 4 6.522 0.997 14.471 0.004 -0.001 -0.010 -0.000
1652 4 6.776 2.433 12.328 0.002 -0.001 -0.005 -0.000
1653 4 8.111 0.934 12.362 -0.002 -0.003 0.008 -0.000
1654 4 8.511 2.439 14.426 0.004 0.001 -0.004 -0.000
1655 4 10.251 0.375 14.748 -0.009 -0.003 0.003 -0.000
1656 4 10.198 2.129 12.400 -0.003 0.010 0.006 0.000
1657 4 12.310 0.550 12.350 -0.003 0.001 -0.003 -0.000
1658 4 11.918 2.226 14.469 -0.002 0.001 0.012 0.000
1659 4 13.927 0.857 14.323 -0.000 -0.003 -0.018 -0.000
1660 4 14.105 2.597 12.395 -0.002 0.007 -0.001 -0.000
1683 4 -1.155 4.700 14.287 0.003 0.004 0.001 -0.000
1684 4 -1.581 6.413 12.388 -0.000 -0.010 0.006 -0.000
1685 4 0.546 4.665 12.650 -0.007 0.002 -0.007 0.000
1686 4 0.407 6.991 13.936 0.008 0.007 -0.004 0.000
1687 4 3.041 4.617 14.220 0.001 -0.004 -0.010 0.000
1688 4 2.921 6.259 12.514 -0.002 -0.003 -0.005 0.000
1689 4 4.615 4.159 12.396 0.001 0.001 -0.002 0.000
1690 4 4.358 6.384 14.417 0.000 0.000 -0.003 0.000
1691 4 6.302 4.198 13.975 -0.003 -0.013 -0.005 -0.000
1692 4 5.953 6.354 12.464 0.004 -0.000 0.007 -0.000
1693 4 8.466 4.525 12.166 0.000 0.001 0.005 0.000
1694 4 8.982 6.496 14.064 -0.006 -0.001 0.004 0.000
1695 4 10.253 4.414 14.117 0.001 0.008 -0.008 0.000
1696 4 10.601 6.443 12.191 0.002 -0.002 0.008 0.000
1697 4 12.502 4.553 12.212 -0.006 0.003 -0.008 0.000
1698 4 11.937 6.581 14.561 0.006 0.005 -0.002 -0.000
1699 4 13.295 4.389 14.434 -0.002 -0.002 -0.013 -0.000
1700 4 14.280 6.569 13.109 0.005 0.002 0.001 -0.000
1723 4 -0.919 9.035 14.394 0.007 -0.004 0.009 -0.000
1724 4 -1.214 10.417 12.611 0.002 0.004 -0.002 -0.000
1725 4 0.713 8.800 12.456 0.004 -0.006 -0.006 0.000
1726 4 1.069 10.638 14.082 0.003 -0.005 0.002 -0.000
1727 4 2.755 8.412 14.378 -0.002 0.003 -0.000 0.000
1728 4 2.724 10.531 12.254 -0.005 0.002 -0.004 -0.000
1729 4 4.781 8.818 12.598 -0.003 0.001 0.003 -0.000
1730 4 4.717 10.725 14.246 0.006 -0.006 0.000 -0.000
1731 4 6.716 8.275 13.788 0.005 -0.001 0.002 -0.000
1732 4 6.722 10.551 11.875 0.003 0.005 0.001 -0.000
1733 4 8.594 8.605 12.551 -0.004 0.006 -0.002 0.000
1734 4 7.826 10.540 14.236 0.005 -0.008 0.000 0.000
1735 4 10.223 8.652 14.307 0.006 -0.001 0.012 0.000
1736 4 10.057 10.407 12.130 0.001 0.009 0.001 0.000
1737 4 12.362 8.863 12.742 -0.001 0.010 -0.006 0.000
1738 4 12.283 11.002 14.278 0.002 0.010 0.003 0.000
1739 4 14.123 8.714 14.285 -0.005 0.001 -0.001 -0.000
1740 4 14.024 10.561 12.272 -0.010 0.007 0.002 -0.000
1763 4 -1.183 12.244 14.291 0.007 -0.002 -0.004 -0.000
1764 4 -1.224 14.012 12.313 -0.002 -0.000 0.001 -0.000
1765 4 0.562 12.402 11.922 0.001 0.003 -0.000 -0.000
1766 4 0.742 13.850 13.857 -0.004 0.000 -0.002 0.000
1767 4 2.854 12.320 14.001 -0.007 0.009 0.001 -0.000
1768 4 2.554 14.092 11.795 -0.004 -0.002 -0.002 -0.000
1769 4 4.377 12.300 11.787 -0.006 0.007 -0.003 -0.000
1770 4 4.629 14.034 14.271 -0.005 -0.000 0.002 0.000
1771 4 6.413 12.521 14.220 0.001 0.006 0.003 0.000
1772 4 6.166 14.425 11.997 0.000 -0.003 -0.006 0.000
1773 4 8.300 12.333 12.255 0.008 -0.006 -0.005 0.000
1774 4 8.483 14.448 14.672 0.000 -0.011 -0.006 0.000
1775 4 10.226 12.621 14.040 -0.007 0.008 0.006 0.000
1776 4 10.527 14.237 12.215 -0.001 0.004 -0.009 -0.000
1777 4 12.753 12.516 12.134 -0.000 -0.014 -0.001 -0.000
1778 4 12.159 14.619 14.380 -0.009 0.006 0.007 -0.000
1779 4 14.666 12.934 14.252 0.011 0.008 0.009 -0.000
1780 4 13.735 14.524 12.751 -0.006 -0.002 -0.002 -0.000
2004 4 -1.261 -1.131 16.098 0.005 -0.010 -0.005 -0.000
2006 4 0.870 -1.128 18.187 -0.010 -0.000 -0.002 0.000
2008 4 2.681 -0.917 16.366 -0.005 0.002 -0.010 -0.000
2010 4 4.280 -1.092 18.092 -0.001 -0.002 0.004 0.000
2012 4 6.363 -1.208 16.263 0.002 0.007 0.007 0.000
2014 4 8.546 -1.255 18.466 -0.006 -0.001 -0.009 -0.000
2016 4 10.479 -1.382 16.303 0.011 0.007 -0.012 -0.000
2018 4 12.085 -1.367 18.235 0.001 -0.011 -0.008 -0.000
2020 4 13.578 -1.425 16.276 0.005 -0.009 -0.001 0.000
2043 4 -1.017 0.839 18.208 -0.004 -0.003 0.004 0.000
2044 4 -0.869 2.929 16.281 0.003 0.011 -0.007 -0.000
2045 4 0.852 0.878 16.704 -0.007 -0.009 -0.004 0.000
2046 4 0.497 2.590 18.316 0.008 0.004 0.000 0.000
2047 4 2.534 0.576 18.495 0.002 0.003 -0.008 0.000
2048 4 2.391 2.768 16.113 0.005 -0.003 0.005 0.000
2049 4 4.301 0.964 16.617 0.004 0.002 -0.003 -0.000
2050 4 4.273 3.015 17.996 -0.016 -0.003 0.004 -0.000
2051 4 6.360 0.909 17.970 0.004 0.008 0.012 0.000
2052 4 6.579 2.849 16.237 0.001 0.001 0.011 -0.000
2053 4 8.346 0.788 16.419 -0.000 0.006 0.000 -0.000
2054 4 8.847 2.686 17.726 -0.007 0.005 0.000 0.000
2055 4 10.191 0.219 17.933 0.003 0.007 -0.008 -0.000
2056 4 10.309 2.349 15.786 -0.003 -0.006 -0.006 0.000
2057 4 12.104 0.643 16.357 0.005 0.002 -0.000 -0.000
2058 4 11.724 2.411 18.021 0.004 -0.004 0.006 0.000
2059 4 14.345 0.500 18.301 0.002 -0.004 0.003 -0.000
2060 4 13.950 2.631 16.157 0.005 -0.002 0.004 -0.000
2083 4 -0.999 4.756 18.122 -0.000 0.001 0.005 0.000
2084 4 -1.610 6.457 15.944 -0.009 -0.003 0.010 -0.000
2085 4 0.993 4.986 15.679 -0.007 -0.001 0.004 0.000
2086 4 0.283 6.884 17.723 -0.006 -0.009 -0.004 0.000
2087 4 2.149 4.692 17.918 0.013 0.002 -0.002 0.000
2088 4 2.648 6.777 16.170 -0.003 0.002 -0.004 0.000
2089 4 4.741 4.772 16.245 -0.000 -0.009 -0.005 -0.000
2090 4 4.721 6.862 17.887 0.005 -0.004 -0.002 -0.000
2091 4 6.443 4.484 18.053 0.002 0.015 0.007 -0.000
2092 4 6.268 6.721 15.950 0.008 0.001 0.008 -0.000
2093 4 8.663 4.780 15.964 -0.003 -0.009 0.000 -0.000
2094 4 8.012 6.600 17.819 -0.008 0.004 0.004 -0.000
2095 4 9.999 4.720 18.188 -0.009 -0.006 -0.001 0.000
2096 4 10.050 6.524 16.206 0.004 -0.004 0.009 0.000
2097 4 11.727 4.525 16.303 -0.003 0.005 -0.007 0.000
2098 4 11.695 6.449 18.091 -0.001 -0.007 -0.013 -0.000
2099 4 13.393 4.159 17.914 -0.000 -0.001 0.003 0.000
2100 4 13.832 6.557 16.135 0.006 0.009 0.000 -0.000
2123 4 -0.963 8.762 17.768 -0.006 0.003 0.005 0.000
2124 4 -1.095 10.394 16.136 0.006 0.006 -0.002 -0.000
2125 4 0.757 8.772 16.133 0.003 -0.001 -0.008 0.000
2126 4 0.975 10.449 18.006 0.006 0.008 -0.004 0.000
2127 4 2.940 8.846 18.145 -0.007 0.005 -0.003 0.000
2128 4 3.001 10.636 15.973 -0.005 -0.006 0.007 0.000
2129 4 4.754 8.663 16.398 -0.004 -0.010 0.008 -0.000
2130 4 4.440 10.910 17.983 -0.001 -0.009 -0.004 0.000
2131 4 6.383 8.880 18.316 -0.004 -0.002 -0.003 0.000
2132 4 6.125 10.687 16.316 -0.000 0.007 0.001 -0.000
2133 4 8.358 8.489 15.808 -0.005 -0.005 0.001 0.000
2134 4 8.451 10.800 17.835 0.002 0.002 0.009 0.000
2135 4 10.416 8.616 17.677 0.001 0.002 0.004 0.000
2136 4 10.101 10.408 15.951 -0.007 -0.000 0.003 0.000
2137 4 12.105 8.763 16.238 -0.011 0.004 0.006 0.000
2138 4 12.333 10.979 17.414 0.005 -0.001 -0.001 0.000
2139 4 14.230 8.761 17.807 -0.004 -0.002 -0.003 -0.000
2140 4 14.592 11.025 15.489 -0.003 0.002 0.006 0.000
2163 4 -0.935 11.865 17.863 0.004 -0.002 0.003 -0.000
2164 4 -0.860 14.171 16.008 -0.009 -0.010 0.001 0.000
2165 4 0.848 12.323 16.198 0.000 -0.001 -0.001 0.000
2166 4 0.765 14.467 18.127 0.003 -0.001 -0.001 0.000
2167 4 2.521 12.328 18.152 0.007 -0.003 0.015 0.000
2168 4 2.544 13.798 16.397 -0.006 -0.003 0.003 0.000
2169 4 4.557 12.665 16.183 -0.010 0.001 -0.001 0.000
2170 4 4.123 14.393 18.414 0.005 -0.001 -0.004 -0.000
2171 4 6.421 12.263 18.167 -0.000 0.005 0.002 0.000
2172 4 6.455 14.474 16.519 -0.003 0.013 0.004 0.000
2173 4 8.147 12.253 15.855 0.009 0.010 -0.004 0.000
2174 4 8.246 14.682 17.876 0.007 -0.002 0.002 0.000
2175 4 10.394 12.394 17.545 0.007 -0.001 -0.006 0.000
2176 4 10.214 14.272 16.011 0.005 -0.006 -0.003 -0.000
2177 4 11.995 12.809 15.862 0.003 -0.006 -0.013 -0.000
2178 4 12.376 14.563 17.736 -0.003 0.002 -0.000 -0.000
2179 4 14.501 12.467 17.877 -0.012 0.004 0.007 0.000
2180 4 14.204 14.755 15.839 0.001 -0.001 -0.012 -0.000
2404 4 -1.368 -1.465 19.771 -0.010 0.007 0.005 0.000
2408 4 2.589 -1.274 20.296 -0.002 0.005 0.000 -0.000
2412 4 6.246 -1.615 19.845 0.009 -0.004 -0.008 0.000
2416 4 10.172 -1.230 20.637 0.004 -0.010 -0.003 -0.000
2420 4 13.912 -1.283 19.944 -0.003 -0.008 -0.003 -0.000
2444 4 -1.156 2.589 20.052 -0.004 -0.005 -0.001 0.000
2445 4 0.817 0.774 20.419 0.003 -0.004 0.005 0.000
2448 4 2.679 2.711 19.787 0.011 -0.000 0.006 -0.000
2449 4 4.999 0.476 19.784 0.007 0.001 0.006 0.000
2452 4 6.733 2.845 19.384 -0.006 -0.010 -0.003 0.000
2453 4 8.502 1.035 19.748 0.003 -0.008 0.005 0.000
2456 4 10.234 2.758 20.162 0.007 0.002 -0.002 0.000
2457 4 12.060 0.817 19.922 0.002 0.000 -0.000 -0.000
2460 4 14.330 2.463 19.669 0.002 -0.002 0.010 -0.000
2484 4 -1.326 6.560 20.132 0.014 0.002 0.000 0.000
2485 4 0.755 4.943 20.229 -0.001 0.006 0.001 -0.000
2488 4 2.474 6.721 19.656 -0.006 -0.006 -0.002 -0.000
2489 4 4.579 4.929 19.607 0.007 -0.003 -0.013 -0.000
2492 4 6.285 6.719 19.820 -0.004 0.002 -0.004 -0.000
2493 4 8.274 4.779 19.647 0.001 0.005 -0.011 0.000
2496 4 9.944 7.097 19.607 -0.008 0.006 -0.006 0.000
2497 4 12.157 4.209 20.020 -0.010 0.002 -0.002 0.000
2500 4 14.045 6.434 19.422 0.001 0.013 -0.003 -0.000
2524 4 -0.921 10.562 19.798 0.005 -0.006 -0.007 -0.000
2525 4 0.465 8.473 19.743 0.004 0.005 0.010 0.000
2528 4 2.552 10.456 20.171 -0.010 -0.001 -0.005 -0.000
2529 4 4.556 8.738 20.706 -0.006 -0.009 0.001 0.000
2532 4 6.438 10.774 20.115 -0.003 -0.010 0.007 0.000
2533 4 8.440 8.879 19.241 -0.002 -0.001 0.005 0.000
2536 4 10.716 10.411 20.023 -0.007 -0.006 0.005 0.000
2537 4 12.210 8.412 19.667 -0.003 -0.008 -0.001 -0.000
2540 4 13.940 10.449 19.737 -0.007 0.001 -0.009 0.000
2564 4 -1.073 14.071 19.709 -0.011 0.004 -0.002 -0.000
2565 4 0.600 12.233 20.128 -0.001 0.005 0.004 -0.000
2568 4 2.198 14.237 20.321 0.011 0.004 -0.011 -0.000
2569 4 4.239 12.455 20.120 -0.000 0.004 0.007 -0.000
2572 4 6.691 13.903 20.106 -0.008 -0.003 0.012 -0.000
2573 4 8.973 12.301 20.058 0.009 0.001 -0.012 0.000
2576 4 10.120 14.301 19.707 -0.002 -0.003 0.000 0.000
2577 4 12.372 12.516 19.840 0.000 0.004 -0.005 0.000
2580 4 14.089 14.548 19.763 0.015 -0.004 0.006 0.000
2483 4 -0.911 4.502 22.005 -0.005 -0.016 0.003 -0.000
2495 4 10.281 4.643 21.893 -0.001 -0.006 0.009 -0.000
2575 4 10.631 12.293 22.049 -0.008 -0.004 -0.014 0.000
2494 4 8.449 6.434 21.539 -0.002 -0.005 -0.006 -0.000
2455 4 9.951 1.090 22.295 0.004 0.002 0.003 -0.000
2487 4 2.941 4.587 21.553 -0.004 -0.004 0.001 -0.000
2450 4 4.549 2.914 21.413 0.006 -0.011 -0.006 -0.000
2454 4 8.269 3.012 21.619 -0.008 -0.002 -0.005 0.000
2443 4 -1.128 0.573 21.860 -0.008 -0.006 -0.004 0.000
2406 4 0.761 -1.414 22.036 -0.003 0.007 0.004 -0.000
2574 4 8.604 14.309 21.869 0.000 -0.001 -0.009 -0.000
2498 4 12.326 6.174 21.744 -0.001 -0.009 0.005 0.000
2499 4 14.316 4.644 21.701 0.004 0.002 -0.012 0.000
2490 4 4.039 6.439 21.754 -0.002 0.002 0.008 -0.000
2531 4 6.820 8.755 21.698 0.002 -0.005 0.006 0.000
2486 4 0.799 6.583 21.978 0.008 0.003 0.003 -0.000
2447 4 2.921 0.829 21.734 -0.010 0.004 0.008 -0.000
2523 4 -0.858 8.136 21.963 0.000 -0.003 -0.008 0.000
2563 4 -1.244 12.423 21.941 -0.006 -0.003 -0.002 -0.000
2535 4 10.274 8.540 21.690 -0.002 -0.006 0.006 -0.000
2539 4 13.971 8.542 21.349 0.004 -0.008 -0.004 -0.000
2538 4 12.251 10.393 22.225 0.002 -0.007 0.001 0.000
2579 4 13.818 12.652 21.813 0.003 -0.007 -0.000 0.000
2459 4 14.013 0.989 21.777 -0.004 -0.009 -0.004 -0.000
2570 4 4.435 14.132 21.974 0.003 -0.003 0.002 -0.000
2567 4 2.204 12.636 22.253 0.006 -0.001 0.013 -0.000
2491 4 6.412 4.566 21.425 -0.009 0.003 -0.000 -0.000
2418 4 12.232 -1.477 22.222 -0.002 0.012 -0.001 -0.000
2414 4 7.957 -1.253 21.702 -0.006 0.015 0.001 0.000
2451 4 6.533 1.059 21.592 -0.006 0.002 0.006 0.000
2527 4 2.422 8.982 22.045 -0.004 0.000 0.003 0.000
2530 4 4.421 10.652 21.849 0.002 -0.001 -0.005 0.000
2446 4 0.681 2.635 21.670 -0.009 -0.011 -0.010 -0.000
2534 4 8.288 10.303 21.603 0.005 -0.010 0.004 0.000
2571 4 6.788 12.237 21.994 0.000 0.003 0.004 0.000
2566 4 0.585 14.299 22.338 -0.002 -0.000 -0.009 0.000
2458 4 12.357 2.977 22.029 0.003 0.001 -0.005 -0.000
2578 4 12.016 14.626 21.907 0.004 -0.000 0.015 0.000
2502 4 16.059 7.142 21.602 0.004 0.003 0.004 0.000
2526 4 0.535 10.426 21.595 -0.002 -0.005 -0.005 -0.000
1615 4 10.181 -2.863 14.107 -0.006 0.001 0.006 0.000
1611 4 6.152 -2.520 14.369 -0.008 0.001 -0.009 0.000
1211 4 6.324 -3.030 10.382 0.002 -0.004 -0.004 0.000
2061 4 16.006 0.597 16.033 0.013 0.003 0.011 -0.000
541 4 16.093 8.213 0.791 0.003 -0.002 0.003 -0.000
16 4 10.379 -1.211 -2.639 0.003 0.005 0.005 -0.000
2022 4 15.920 -1.206 17.817 0.003 -0.013 -0.001 -0.000
2542 4 15.825 10.484 21.754 -0.002 0.000 -0.004 0.000
1605 4 0.625 -2.973 12.745 -0.004 -0.001 0.002 -0.000
2410 4 4.643 -0.986 21.711 -0.008 0.001 -0.004 -0.000
962 4 -2.754 14.015 6.620 0.004 -0.006 0.002 -0.000
2005 4 0.428 -2.996 16.366 0.005 0.003 -0.011 -0.000
2062 4 15.717 2.557 17.625 0.008 -0.000 0.004 -0.000
2582 4 16.024 14.359 21.717 0.006 -0.000 -0.008 0.000
542 4 15.911 10.388 2.350 -0.004 -0.007 -0.001 -0.000
922 4 -2.810 10.454 6.573 0.006 -0.002 -0.003 -0.000
2011 4 6.244 -2.872 17.743 0.004 -0.007 -0.006 0.000
941 4 16.079 8.252 4.875 0.006 -0.007 0.003 0.000
419 4 14.246 -3.110 3.078 0.004 -0.011 -0.004 0.000
2013 4 8.218 -2.919 16.601 0.004 -0.007 -0.004 0.000
2461 4 15.803 0.618 20.238 -0.002 0.004 -0.003 -0.000
1661 4 16.017 0.686 12.500 -0.003 0.004 0.012 -0.000
2541 4 15.737 8.416 19.473 0.002 0.005 -0.002 0.000
522 4 -2.899 10.531 2.742 -0.004 -0.008 0.009 0.000
2019 4 14.078 -3.088 17.913 -0.004 -0.003 -0.007 0.000
1603 4 -1.196 -3.004 14.493 0.008 0.001 -0.007 -0.000
142 4 16.046 9.972 -1.631 0.008 0.007 -0.007 -0.000
2462 4 15.556 2.784 21.665 0.004 -0.005 0.014 0.000
1321 4 -2.963 8.329 8.267 0.005 0.004 -0.008 0.000
1322 4 -2.905 10.353 10.805 -0.007 -0.004 -0.005 0.000
961 4 -2.669 12.088 4.678 -0.006 0.009 0.011 -0.000
12 4 6.561 -1.059 -2.445 0.012 -0.008 -0.003 -0.000
1781 4 15.798 12.649 11.965 0.005 -0.002 0.003 0.000
841 4 -2.944 0.340 4.518 -0.002 0.007 -0.014 0.000
921 4 -3.041 8.275 4.607 -0.005 0.006 0.011 -0.000
2581 4 16.009 12.408 20.127 0.003 -0.010 -0.008 0.000
882 4 -3.113 6.437 6.761 -0.015 0.005 0.000 0.000
561 4 -2.797 12.402 0.459 0.000 0.002 0.012 0.000
1617 4 11.640 -2.573 12.114 -0.003 0.008 0.008 0.000
1215 4 9.945 -2.984 10.659 0.001 -0.002 0.001 -0.000
819 4 14.196 -2.907 6.798 -0.003 0.004 -0.012 0.000
1205 4 0.450 -2.933 8.634 -0.003 -0.002 0.001 -0.000
1613 4 8.286 -2.582 12.293 -0.003 -0.012 -0.007 0.000
415 4 10.365 -2.996 2.890 0.004 -0.004 0.002 -0.000
1607 4 3.036 -1.989 13.981 0.005 -0.001 0.002 -0.000
2101 4 15.970 4.427 16.094 0.008 -0.002 -0.000 0.000