ITEM: TIMESTEP
30000
ITEM: NUMBER OF ATOMS
32000
ITEM: BOX BOUNDS pp pp pp
-2.961899 73.441899
-2.963209 73.443209
-3.115342 73.595342
ITEM: ATOMS id type x y z vx vy vz q
6 4 0.890 -0.987 -1.052 -0.003 0.005 -0.011 -0.000
10 4 4.901 -1.068 -1.276 0.007 0.000 -0.006 -0.000
14 4 8.419 -1.019 -1.599 0.008 0.000 0.005 -0.000
18 4 12.529 -0.946 -1.573 -0.002 0.005 0.010 0.000
43 4 -0.934 0.721 -1.022 -0.000 -0.009 -0.001 -0.000
46 4 1.148 3.029 -1.151 -0.000 -0.001 -0.007 0.000
47 4 2.889 1.179 -1.284 -0.011 0.000 0.006 -0.000
50 4 4.986 2.946 -0.972 0.003 0.004 0.003 -0.000
51 4 6.675 0.889 -0.893 -0.002 -0.005 -0.007 -0.000
54 4 8.762 2.618 -1.444 0.002 -0.002 -0.002 -0.000
55 4 9.932 0.600 -0.928 -0.004 -0.001 -0.010 0.000
58 4 12.509 2.612 -1.921 0.006 -0.009 -0.005 0.000
59 4 14.419 0.660 -1.389 -0.004 0.001 -0.006 0.000
83 4 -0.931 5.049 -1.037 0.002 -0.006 -0.000 0.000
86 4 1.049 6.204 -1.355 0.016 -0.005 -0.003 0.000
87 4 2.956 4.715 -1.008 -0.004 0.008 0.007 0.000
90 4 4.899 6.616 -0.945 0.004 -0.003 0.003 -0.000
91 4 6.732 4.870 -1.029 0.001 -0.010 0.002 0.000
94 4 8.186 7.219 -1.860 0.008 -0.001 0.008 -0.000
95 4 10.927 4.540 -1.228 -0.008 0.007 -0.009 -0.000
98 4 13.127 6.470 -0.952 0.009 -0.004 -0.007 -0.000
99 4 14.687 4.573 -1.921 0.016 0.004 0.008 -0.000
123 4 -0.769 8.112 -1.119 0.006 0.003 0.001 0.000
126 4 0.788 10.567 -1.387 -0.006 0.001 -0.000 0.000
127 4 2.257 8.480 -1.137 0.003 0.005 0.003 0.000
130 4 4.645 10.315 -1.161 -0.000 0.009 0.005 -0.000
131 4 6.631 8.822 -0.964 0.010 -0.002 0.002 -0.000
134 4 8.597 10.551 -1.243 -0.011 -0.007 -0.005 -0.000
135 4 11.097 8.281 -1.391 -0.001 -0.006 -0.002 -0.000
138 4 12.629 10.505 -1.318 -0.008 0.006 0.007 -0.000
139 4 14.349 8.765 -1.350 0.005 -0.004 0.004 -0.000
163 4 -0.933 12.235 -1.646 0.008 -0.003 0.003 -0.000
166 4 0.374 14.549 -1.511 -0.008 0.001 -0.001 -0.000
167 4 2.405 12.702 -1.639 -0.011 0.001 -0.002 0.000
170 4 4.523 14.162 -1.481 -0.005 0.001 -0.009 0.000
171 4 6.819 12.166 -1.177 -0.001 -0.002 -0.003 -0.000
174 4 8.580 14.196 -1.254 -0.007 -0.002 -0.014 -0.000
175 4 10.151 12.202 -1.303 -0.001 0.015 0.002 -0.000
178 4 12.127 13.757 -1.426 0.009 0.008 0.007 0.000
179 4 14.699 12.262 -1.994 -0.013 0.002 0.006 -0.000
404 4 -0.734 -1.027 0.983 0.004 0.005 0.004 -0.000
406 4 1.444 -0.841 2.777 0.006 -0.001 -0.009 0.000
408 4 2.907 -0.691 0.364 0.004 0.002 0.010 -0.000
410 4 5.113 -1.234 2.629 0.003 0.009 0.001 0.000
412 4 6.946 -1.030 0.730 0.007 0.004 0.001 -0.000
414 4 8.620 -0.880 2.542 0.002 -0.012 -0.001 -0.000
416 4 10.958 -1.296 0.392 0.009 0.011 0.019 0.000
418 4 12.364 -1.361 2.078 0.011 0.009 0.002 0.000
420 4 14.303 -1.383 0.156 -0.002 0.003 0.009 0.000
443 4 -0.727 1.005 2.844 0.005 -0.016 0.005 -0.000
444 4 -1.029 2.828 0.720 -0.007 -0.002 -0.011 -0.000
445 4 1.361 1.244 0.886 0.004 0.007 0.000 -0.000
446 4 1.216 2.740 2.606 0.007 0.003 -0.014 0.000
447 4 3.327 0.652 2.355 0.007 0.000 0.005 0.000
448 4 3.264 2.541 0.900 -0.007 -0.013 -0.006 0.000
449 4 4.849 0.712 0.618 0.004 -0.002 0.003 0.000
450 4 4.915 2.528 2.894 0.018 0.001 0.004 0.000
451 4 6.862 0.778 2.559 -0.000 0.004 0.005 0.000
452 4 7.071 2.838 0.943 0.008 0.004 -0.011 0.000
453 4 9.017 0.901 1.070 0.003 0.004 0.004 -0.000
454 4 8.991 3.090 2.175 -0.007 -0.008 -0.006 0.000
455 4 11.057 0.966 2.280 -0.012 -0.007 -0.002 -0.000
456 4 10.745 2.511 0.336 0.007 -0.002 0.001 0.000
457 4 12.381 0.793 0.437 -0.008 0.006 -0.000 0.000
458 4 13.093 2.391 2.795 -0.005 -0.007 0.003 -0.000
459 4 14.086 0.305 2.067 -0.003 -0.005 0.007 -0.000
460 4 14.071 2.269 0.108 0.003 -0.009 -0.006 -0.000
483 4 -1.143 4.862 2.892 -0.009 0.016 0.003 -0.000
484 4 -0.997 6.739 1.125 -0.007 -0.002 -0.008 0.000
485 4 0.968 4.641 0.831 -0.005 -0.003 0.007 0.000
486 4 1.085 6.685 2.780 -0.004 -0.004 -0.012 0.000
487 4 3.132 4.518 2.994 -0.006 0.003 -0.008 0.000
488 4 2.877 6.323 1.012 0.003 0.010 -0.001 0.000
489 4 4.744 4.489 0.976 -0.001 0.011 -0.013 0.000
490 4 5.373 6.508 2.696 -0.012 -0.009 0.002 0.000
491 4 7.347 5.010 2.359 0.003 0.001 -0.002 0.000
492 4 6.963 6.611 0.793 -0.003 0.008 -0.002 0.000
493 4 8.962 4.876 0.146 0.002 -0.008 0.003 0.000
494 4 9.019 6.806 2.315 0.003 -0.002 -0.001 -0.000
495 4 10.895 4.589 2.339 -0.005 0.006 -0.001 0.000
496 4 10.911 6.705 0.342 -0.003 -0.007 0.005 -0.000
497 4 12.825 4.324 0.877 0.002 -0.010 0.012 0.000
498 4 12.322 6.402 2.434 -0.001 0.002 0.001 -0.000
499 4 14.565 4.869 2.575 -0.012 0.001 0.011 0.000
500 4 14.766 6.853 0.895 0.003 0.015 -0.006 -0.000
523 4 -1.067 8.614 2.587 0.011 -0.003 -0.002 0.000
524 4 -1.026 10.275 0.697 -0.001 0.000 0.007 0.000
525 4 0.849 8.584 0.759 0.003 0.011 0.009 0.000
526 4 1.027 10.418 2.648 -0.007 0.006 0.003 0.000
527 4 2.580 8.603 2.327 -0.014 -0.008 -0.001 0.000
528 4 2.701 10.677 0.321 0.001 -0.004 0.003 0.000
529 4 4.617 8.374 0.571 0.000 0.006 -0.004 -0.000
530 4 4.627 10.242 1.904 0.010 -0.005 -0.008 -0.000
531 4 6.882 8.554 2.392 -0.013 0.001 -0.000 -0.000
532 4 6.922 10.530 0.852 0.001 -0.016 -0.007 -0.000
533 4 9.089 8.476 0.188 0.010 0.005 -0.001 -0.000
534 4 9.032 10.564 2.363 -0.006 0.000 -0.004 -0.000
535 4 10.771 8.631 2.438 0.006 -0.010 0.009 -0.000
536 4 10.515 10.157 0.391 -0.001 -0.001 0.006 -0.000
537 4 12.755 8.553 0.548 0.009 0.005 0.008 -0.000
538 4 12.616 10.381 2.306 -0.000 0.008 -0.001 -0.000
539 4 14.886 9.154 2.397 0.001 0.015 0.001 0.000
540 4 14.672 10.558 0.416 0.002 -0.007 -0.001 0.000
563 4 -0.853 12.177 2.641 0.002 0.016 -0.000 -0.000
564 4 -0.836 14.041 0.457 -0.006 0.001 -0.001 -0.000
565 4 0.637 12.203 0.581 0.009 -0.008 0.004 0.000
566 4 1.213 14.213 2.705 -0.004 0.008 0.009 -0.000
567 4 2.973 12.356 2.336 -0.002 -0.009 0.007 -0.000
568 4 2.675 14.795 0.762 0.005 0.009 0.002 -0.000
569 4 4.468 12.721 0.323 -0.007 -0.010 0.001 0.000
570 4 4.485 14.290 2.100 -0.001 -0.012 0.003 -0.000
571 4 6.689 12.336 1.982 0.002 -0.004 0.003 0.000
572 4 6.659 13.953 0.541 0.003 0.001 0.007 0.000
573 4 8.900 12.401 0.776 0.002 0.004 -0.004 0.000
574 4 8.766 14.183 2.399 0.009 -0.009 0.003 0.000
575 4 10.568 12.650 2.806 0.001 0.001 -0.005 0.000
576 4 10.725 14.118 0.808 -0.007 0.005 -0.002 -0.000
577 4 12.324 12.064 0.787 -0.000 0.005 0.003 0.000
578 4 12.400 14.600 2.552 0.006 0.001 0.007 0.000
579 4 14.120 12.080 2.439 0.002 0.003 -0.003 -0.000
580 4 13.768 14.368 0.625 0.005 -0.000 -0.003 0.000
804 4 -0.772 -1.075 4.049 0.006 -0.002 -0.009 0.000
806 4 1.127 -0.659 6.452 0.010 -0.001 -0.005 -0.000
808 4 3.133 -1.090 4.597 -0.000 -0.002 0.008 0.000
810 4 5.285 -1.419 6.856 0.015 -0.007 0.004 -0.000
812 4 6.835 -1.308 4.504 0.005 -0.006 -0.007 -0.000
814 4 9.233 -1.009 6.157 -0.004 0.006 -0.002 -0.000
816 4 10.734 -1.028 4.038 0.010 0.008 -0.002 -0.000
818 4 12.234 -1.476 6.194 0.001 0.006 -0.001 -0.000
820 4 14.211 -1.399 4.234 -0.007 0.013 -0.000 -0.000
843 4 -0.876 0.608 6.285 -0.001 -0.003 -0.001 0.000
844 4 -0.905 2.588 4.631 -0.000 0.003 0.006 -0.000
845 4 1.097 0.934 4.342 -0.004 0.001 -0.006 -0.000
846 4 1.213 2.756 6.606 -0.007 -0.001 0.001 -0.000
847 4 3.300 0.661 6.599 0.003 0.002 -0.015 -0.000
848 4 3.115 2.570 4.817 0.003 0.009 -0.009 0.000
849 4 5.016 0.639 4.802 -0.007 0.001 -0.009 0.000
850 4 4.978 2.815 6.359 -0.007 0.003 0.003 0.000
851 4 7.018 0.469 6.375 0.002 0.006 -0.002 0.000
852 4 6.875 2.779 4.501 0.004 -0.014 -0.009 0.000
853 4 9.232 0.853 4.007 0.003 -0.003 0.011 -0.000
854 4 8.715 2.901 6.245 0.000 0.000 0.005 0.000
855 4 10.779 0.730 6.160 0.008 -0.007 0.008 -0.000
856 4 10.756 2.816 4.232 0.003 -0.002 -0.001 -0.000
857 4 12.507 0.708 4.534 -0.002 0.003 -0.004 -0.000
858 4 12.537 2.733 6.292 0.005 0.012 -0.001 -0.000
859 4 14.393 0.806 6.794 0.011 -0.001 -0.004 -0.000
860 4 14.573 3.013 4.601 0.001 0.012 0.011 -0.000
883 4 -0.981 4.439 6.234 -0.004 0.001 0.004 0.000
884 4 -0.613 6.805 4.590 -0.005 0.005 -0.008 0.000
885 4 1.258 4.991 4.714 0.006 -0.003 0.003 -0.000
886 4 1.283 6.872 6.324 0.004 0.001 -0.002 0.000
887 4 3.137 4.842 6.499 -0.002 -0.007 -0.002 0.000
888 4 3.261 7.096 4.332 -0.001 0.005 0.006 0.000
889 4 4.843 4.833 4.706 0.002 -0.005 -0.003 0.000
890 4 4.793 6.867 6.512 0.001 -0.009 0.007 0.000
891 4 6.908 4.892 6.568 0.000 -0.003 0.001 0.000
892 4 7.080 6.430 4.584 -0.003 -0.000 0.005 0.000
893 4 9.151 4.491 4.221 0.003 -0.000 -0.005 0.000
894 4 8.768 6.437 6.465 0.007 -0.001 -0.005 -0.000
895 4 10.592 4.754 6.186 0.003 0.001 0.007 -0.000
896 4 10.599 6.772 4.265 -0.008 0.001 0.014 -0.000
897 4 12.414 4.963 4.733 -0.006 0.004 0.004 0.000
898 4 12.541 7.111 6.005 -0.007 -0.005 -0.004 0.000
899 4 14.916 4.849 6.353 -0.008 -0.005 -0.004 0.000
900 4 14.687 6.799 4.529 -0.013 0.006 0.003 0.000
923 4 -0.906 8.517 6.364 0.003 0.000 0.003 0.000
924 4 -0.879 10.659 4.397 0.001 -0.001 0.002 -0.000
925 4 0.902 8.607 4.605 -0.004 0.004 -0.006 -0.000
926 4 1.284 10.607 6.209 -0.006 0.001 0.002 0.000
927 4 3.200 8.557 6.133 -0.008 0.003 0.008 0.000
928 4 2.930 9.651 4.297 0.009 -0.009 -0.007 0.000
929 4 5.059 8.946 4.456 0.003 -0.000 0.006 -0.000
930 4 4.778 10.368 6.080 0.016 -0.001 0.009 -0.000
931 4 6.890 8.557 6.205 -0.002 0.007 -0.005 -0.000
932 4 7.267 10.274 3.901 0.004 0.002 -0.002 -0.000
933 4 8.803 8.612 4.130 0.005 -0.011 0.008 -0.000
934 4 9.022 10.731 5.996 -0.006 0.003 -0.011 -0.000
935 4 10.590 9.002 5.770 -0.004 0.011 0.004 0.000
936 4 10.916 10.639 4.411 0.013 -0.003 -0.004 0.000
937 4 12.777 8.387 4.182 -0.001 -0.004 -0.000 0.000
938 4 12.809 10.339 6.336 -0.008 -0.005 -0.009 0.000
939 4 14.756 8.683 6.230 -0.010 0.009 -0.003 0.000
940 4 14.207 10.382 4.466 -0.002 0.007 0.005 0.000
963 4 -0.929 12.106 6.257 0.000 -0.008 0.002 -0.000
964 4 -0.829 14.146 4.747 -0.009 0.003 0.002 -0.000
965 4 1.240 12.431 4.457 -0.002 -0.004 0.006 -0.000
966 4 1.143 14.115 6.458 -0.001 -0.003 -0.000 0.000
967 4 3.058 12.411 6.171 0.004 -0.004 0.001 0.000
968 4 3.149 13.953 4.533 0.002 0.002 0.009 -0.000
969 4 4.902 12.401 3.957 -0.006 0.001 -0.002 -0.000
970 4 5.084 14.380 6.556 -0.009 0.007 0.000 0.000
971 4 6.375 12.183 5.940 0.002 -0.002 -0.006 -0.000
972 4 6.478 14.201 3.939 0.004 -0.001 -0.010 -0.000
973 4 8.408 12.628 4.240 -0.005 0.007 -0.002 -0.000
974 4 7.920 14.209 6.043 0.002 0.002 0.006 -0.000
975 4 10.363 12.587 6.231 -0.006 -0.001 -0.000 -0.000
976 4 10.626 14.401 4.535 -0.002 0.005 0.006 -0.000
977 4 12.661 12.534 4.381 -0.002 -0.004 0.003 0.000
978 4 12.553 14.112 6.522 -0.000 -0.004 -0.003 -0.000
979 4 14.402 12.446 6.324 0.000 0.011 0.006 -0.000
980 4 14.455 14.197 4.289 0.001 0.010 0.014 -0.000
1204 4 -0.666 -0.713 8.186 -0.004 -0.003 0.008 -0.000
1206 4 0.969 -0.989 10.186 -0.001 0.002 0.001 -0.000
1208 4 3.241 -1.038 8.095 0.000 -0.009 0.005 -0.000
1210 4 4.851 -0.986 10.216 -0.007 0.004 0.000 0.000
1212 4 7.448 -1.262 8.160 -0.004 0.001 -0.003 0.000
1214 4 8.501 -1.017 10.028 0.004 0.010 0.000 0.000
1216 4 10.378 -1.331 8.184 -0.002 0.000 -0.009 0.000
1218 4 12.499 -1.174 10.285 -0.002 0.006 0.008 0.000
1220 4 13.960 -1.066 8.185 0.004 0.004 0.007 -0.000
1243 4 -0.707 1.106 10.066 0.002 0.009 0.001 0.000
1244 4 -0.574 2.590 8.441 0.014 -0.002 0.006 -0.000
1245 4 1.351 0.658 8.489 -0.004 0.008 -0.007 -0.000
1246 4 1.358 2.485 10.520 -0.009 0.004 -0.002 0.000
1247 4 3.121 0.763 9.852 0.005 0.004 -0.003 -0.000
1248 4 2.855 2.576 8.074 -0.003 0.002 0.001 -0.000
1249 4 5.099 0.774 8.437 -0.003 0.014 0.003 -0.000
1250 4 4.584 2.767 10.395 -0.007 -0.001 -0.000 -0.000
1251 4 6.676 0.981 10.301 -0.002 -0.007 -0.002 0.000
1252 4 6.914 2.665 8.294 -0.002 -0.002 -0.009 0.000
1253 4 8.986 0.897 8.135 -0.005 -0.002 -0.007 0.000
1254 4 9.012 2.803 10.347 -0.000 0.000 0.000 -0.000
1255 4 10.392 0.799 10.393 -0.000 0.002 0.003 0.000
1256 4 10.545 2.732 8.217 0.010 0.005 -0.005 -0.000
1257 4 12.217 0.399 8.277 0.002 -0.003 -0.004 -0.000
1258 4 12.308 2.531 10.200 0.006 0.008 -0.007 -0.000
1259 4 14.386 0.308 10.100 -0.014 0.005 0.002 -0.000
1260 4 14.166 2.639 8.297 -0.007 0.010 0.005 -0.000
1283 4 -0.840 4.459 10.028 0.009 -0.006 0.005 -0.000
1284 4 -1.055 6.348 8.267 0.004 0.000 0.003 0.000
1285 4 0.946 4.701 7.823 -0.006 0.001 -0.001 -0.000
1286 4 0.686 6.513 9.845 0.002 0.009 0.012 0.000
1287 4 2.976 4.469 9.550 -0.002 0.005 0.007 -0.000
1288 4 3.004 6.529 8.336 0.001 -0.005 0.002 0.000
1289 4 5.076 4.792 8.089 -0.000 0.009 -0.005 0.000
1290 4 4.972 6.862 9.987 -0.006 -0.002 0.001 0.000
1291 4 6.951 4.767 9.727 -0.004 0.001 0.010 -0.000
1292 4 6.817 6.761 8.255 0.001 0.002 0.003 0.000
1293 4 8.599 4.688 8.282 0.001 -0.005 0.002 -0.000
1294 4 9.029 6.736 10.059 -0.001 -0.010 -0.012 -0.000
1295 4 10.719 4.244 9.952 -0.003 0.007 -0.015 -0.000
1296 4 10.663 6.631 7.913 0.009 0.000 -0.003 0.000
1297 4 12.362 4.450 8.024 -0.007 -0.011 -0.010 -0.000
1298 4 12.523 6.462 9.817 -0.002 -0.000 -0.003 0.000
1299 4 14.605 4.460 10.034 -0.006 -0.006 -0.006 0.000
1300 4 14.553 6.640 8.376 -0.006 -0.001 -0.006 0.000
1323 4 -0.905 7.980 10.224 0.005 0.001 0.014 -0.000
1324 4 -1.103 10.406 8.009 0.002 -0.004 -0.007 -0.000
1325 4 1.330 8.258 8.126 0.000 0.001 0.013 0.000
1326 4 0.544 10.439 10.495 -0.001 0.005 -0.003 -0.000
1327 4 2.686 8.611 9.910 0.004 -0.007 0.005 0.000
1328 4 2.827 10.308 8.063 -0.001 0.012 -0.009 0.000
1329 4 4.669 9.011 8.611 -0.002 0.000 0.001 0.000
1330 4 4.878 10.462 10.333 0.010 -0.003 0.002 0.000
1331 4 7.097 9.146 10.073 -0.002 0.006 -0.007 0.000
1332 4 6.842 10.282 7.805 -0.008 -0.002 -0.001 -0.000
1333 4 9.373 8.625 7.913 -0.003 0.007 0.011 0.000
1334 4 8.780 10.729 9.986 0.011 0.000 -0.006 -0.000
1335 4 10.790 8.891 9.748 -0.005 -0.001 0.012 0.000
1336 4 10.937 10.874 7.754 0.004 0.003 -0.001 0.000
1337 4 12.676 8.519 8.158 0.001 -0.001 -0.001 0.000
1338 4 12.569 10.562 10.132 0.010 0.004 -0.001 -0.000
1339 4 14.298 8.665 10.034 0.000 0.004 0.007 0.000
1340 4 14.364 10.524 8.021 -0.003 0.003 0.010 0.000
1363 4 -1.027 12.495 9.771 0.002 0.003 -0.001 0.000
1364 4 -0.965 14.263 8.009 0.007 -0.006 0.002 0.000
1365 4 0.913 12.108 8.474 0.003 -0.004 -0.002 0.000
1366 4 1.325 13.793 10.000 0.000 0.007 0.003 0.000
1367 4 3.058 12.071 10.372 -0.009 0.007 0.002 0.000
1368 4 3.024 14.031 8.162 0.012 0.004 0.006 0.000
1369 4 5.024 11.968 8.176 0.004 -0.003 0.002 -0.000
1370 4 4.908 13.868 10.065 -0.010 -0.008 0.005 -0.000
1371 4 6.729 12.262 10.103 0.002 0.005 -0.005 -0.000
1372 4 7.001 14.261 8.255 0.005 0.005 -0.001 -0.000
1373 4 8.311 12.338 7.799 -0.006 0.002 -0.007 -0.000
1374 4 8.635 14.216 10.044 0.007 -0.005 -0.004 -0.000
1375 4 10.686 12.089 9.860 -0.005 0.003 0.005 -0.000
1376 4 10.705 13.968 8.221 0.011 0.011 -0.021 0.000
1377 4 12.444 12.345 8.153 0.001 -0.009 0.005 0.000
1378 4 12.323 13.935 10.429 0.005 0.002 -0.005 0.000
1379 4 14.189 12.348 10.624 -0.002 0.002 0.003 -0.000
1380 4 14.042 14.309 8.461 -0.004 -0.001 -0.005 0.000
1604 4 -0.510 -0.676 12.296 -0.001 0.006 0.001 0.000
1606 4 1.105 -1.187 14.116 -0.001 -0.003 -0.007 0.000
1608 4 2.655 -1.052 12.074 0.007 -0.004 -0.008 0.000
1610 4 4.659 -0.731 14.283 0.004 0.001 0.001 0.000
1612 4 6.309 -0.861 11.961 0.002 0.009 0.008 0.000
1614 4 8.619 -0.644 14.102 0.007 0.003 -0.007 -0.000
1616 4 10.497 -0.833 11.856 0.007 0.003 0.002 0.000
1618 4 12.577 -1.389 13.849 0.003 0.021 0.013 0.000
1620 4 14.328 -1.193 12.104 0.001 -0.003 0.002 -0.000
1643 4 -0.499 1.028 14.341 -0.000 -0.003 0.002 -0.000
1644 4 -0.866 2.743 12.067 0.005 0.009 -0.003 0.000
1645 4 1.130 0.985 12.095 -0.006 -0.004 0.004 0.000
1646 4 0.958 3.101 13.828 -0.002 -0.004 -0.002 0.000
1647 4 2.620 1.007 14.089 -0.004 0.003 0.004 0.000
1648 4 3.191 3.181 12.128 0.000 0.004 0.004 0.000
1649 4 4.535 0.841 11.854 0.002 -0.001 0.005 0.000
1650 4 5.036 3.401 13.825 0.007 -0.003 0.004 -0.000
1651 4 6.637 1.067 13.850 0.005 0.002 -0.001 0.000
1652 4 6.862 2.742 12.019 -0.002 0.006 0.001 -0.000
1653 4 8.653 0.865 12.179 -0.007 0.007 0.002 0.000
1654 4 9.088 3.193 13.936 -0.005 0.001 0.008 -0.000
1655 4 10.657 0.646 14.227 0.001 -0.002 0.004 0.000
1656 4 10.868 2.543 12.244 0.002 -0.004 -0.000 -0.000
1657 4 12.510 0.593 11.898 -0.006 -0.001 0.006 -0.000
1658 4 12.377 2.322 14.102 -0.010 -0.001 0.003 -0.000
1659 4 14.300 1.022 14.151 0.001 -0.008 0.011 -0.000
1660 4 14.208 2.731 12.200 -0.014 0.004 0.007 -0.000
1683 4 -1.032 4.852 13.951 0.011 -0.004 0.002 0.000
1684 4 -0.612 6.325 11.933 -0.000 0.005 0.006 -0.000
1685 4 1.297 4.824 11.655 -0.004 -0.004 -0.001 -0.000
1686 4 0.926 6.261 13.900 0.011 0.001 0.009 0.000
1687 4 3.471 4.992 14.152 0.001 0.003 0.007 -0.000
1688 4 3.160 6.560 11.832 -0.002 -0.004 -0.010 -0.000
1689 4 5.075 4.846 11.721 0.001 0.005 -0.002 -0.000
1690 4 5.268 6.875 13.808 0.003 0.003 -0.010 -0.000
1691 4 6.741 4.605 13.900 0.002 0.001 -0.006 -0.000
1692 4 6.835 6.529 11.760 0.002 -0.000 -0.009 -0.000
1693 4 9.073 4.769 11.672 -0.001 0.003 -0.003 -0.000
1694 4 8.967 6.166 13.898 0.005 0.010 -0.003 0.000
1695 4 11.104 4.421 14.303 -0.004 -0.006 -0.007 0.000
1696 4 10.820 6.241 12.011 -0.003 0.006 -0.000 0.000
1697 4 12.561 4.413 12.057 -0.002 0.003 -0.012 -0.000
1698 4 12.615 6.554 14.095 -0.004 -0.003 -0.001 0.000
1699 4 13.852 4.401 14.351 -0.001 0.009 -0.003 0.000
1700 4 14.041 6.210 11.824 -0.000 -0.001 -0.002 -0.000
1723 4 -1.164 8.760 14.169 -0.003 0.005 -0.004 0.000
1724 4 -1.322 10.282 12.100 -0.001 0.000 0.002 -0.000
1725 4 0.916 8.546 11.928 0.000 0.003 0.006 -0.000
1726 4 0.925 10.259 13.569 0.010 -0.001 -0.000 -0.000
1727 4 3.128 8.611 13.967 0.002 0.001 0.008 -0.000
1728 4 2.857 10.143 11.932 0.007 -0.002 0.002 -0.000
1729 4 5.289 8.421 12.124 -0.003 0.003 0.002 -0.000
1730 4 4.894 10.186 14.213 0.001 0.002 0.003 -0.000
1731 4 7.555 8.170 14.193 0.007 0.001 -0.005 0.000
1732 4 7.201 10.691 12.550 0.006 -0.001 0.007 -0.000
1733 4 8.916 8.945 11.889 0.001 -0.005 0.006 0.000
1734 4 9.152 10.617 14.379 0.007 0.000 -0.012 0.000
1735 4 10.359 8.397 13.705 -0.006 -0.003 0.004 0.000
1736 4 10.681 10.356 12.063 0.009 0.001 0.003 0.000
1737 4 12.370 8.129 11.712 0.006 -0.002 -0.007 0.000
1738 4 12.493 10.525 14.247 0.004 0.005 0.007 -0.000
1739 4 14.142 8.613 13.671 0.004 -0.009 -0.016 -0.000
1740 4 14.324 10.687 12.294 -0.004 -0.002 0.005 -0.000
1763 4 -0.862 12.197 13.735 0.001 0.001 -0.011 0.000
1764 4 -0.314 13.757 12.034 0.007 0.004 -0.002 0.000
1765 4 0.891 12.008 12.282 -0.006 -0.004 -0.004 -0.000
1766 4 1.245 14.089 14.207 -0.003 0.007 0.004 0.000
1767 4 3.087 12.002 13.926 0.006 -0.004 0.005 0.000
1768 4 3.130 13.728 12.094 -0.002 0.004 -0.004 0.000
1769 4 5.243 12.206 12.211 0.002 0.000 -0.003 -0.000
1770 4 4.676 13.868 14.050 -0.009 0.001 0.007 0.000
1771 4 6.792 12.519 14.165 0.003 -0.006 0.009 -0.000
1772 4 6.990 13.795 12.010 0.004 -0.011 0.007 -0.000
1773 4 8.809 12.137 12.026 0.007 0.006 0.004 -0.000
1774 4 8.363 14.529 14.148 0.006 0.000 0.007 0.000
1775 4 10.668 12.571 14.044 0.003 -0.001 0.006 0.000
1776 4 10.265 14.205 12.103 0.001 -0.014 -0.009 -0.000
1777 4 12.217 12.132 11.951 0.003 -0.005 -0.011 -0.000
1778 4 12.171 14.727 14.018 0.007 -0.007 0.003 -0.000
1779 4 14.333 12.817 13.916 -0.009 0.007 -0.002 -0.000
1780 4 14.197 14.509 12.274 0.002 0.000 -0.002 -0.000
2004 4 -0.912 -0.800 16.227 -0.007 -0.001 -0.006 -0.000
2006 4 0.688 -0.622 18.316 0.014 -0.007 -0.003 0.000
2008 4 2.448 -1.001 15.984 0.005 0.002 0.001 0.000
2010 4 4.385 -0.918 17.925 0.003 -0.006 -0.005 -0.000
2012 4 6.751 -0.755 15.937 0.002 -0.002 0.006 -0.000
2014 4 8.732 -0.937 17.888 -0.001 -0.002 0.004 0.000
2016 4 10.378 -1.034 16.124 0.003 0.009 -0.009 0.000
2018 4 12.487 -1.210 18.202 0.003 0.001 -0.005 -0.000
2020 4 14.304 -1.648 16.173 0.006 0.002 0.001 -0.000
2043 4 -0.826 1.707 18.059 0.011 -0.001 -0.002 0.000
2044 4 -0.428 3.071 15.805 0.005 0.000 -0.005 0.000
2045 4 0.884 1.136 16.204 0.004 -0.004 0.005 0.000
2046 4 1.631 3.295 17.786 0.012 0.007 -0.002 0.000
2047 4 2.816 0.753 18.068 0.009 -0.003 -0.003 -0.000
2048 4 3.091 2.693 15.731 -0.004 -0.007 0.001 0.000
2049 4 5.134 1.339 15.907 0.000 0.007 0.004 -0.000
2050 4 5.023 3.047 17.777 0.008 0.016 -0.003 0.000
2051 4 6.579 0.738 18.014 0.009 -0.009 0.002 -0.000
2052 4 7.082 2.891 16.289 0.002 -0.002 0.001 -0.000
2053 4 9.281 1.387 16.058 -0.001 0.008 0.006 -0.000
2054 4 8.857 2.591 17.921 -0.006 -0.007 -0.007 0.000
2055 4 10.766 0.645 18.144 0.009 0.003 0.003 0.000
2056 4 11.039 2.621 16.449 -0.013 0.006 0.002 0.000
2057 4 12.151 0.353 16.043 0.002 -0.000 -0.013 0.000
2058 4 12.354 2.938 18.435 0.007 0.008 0.002 0.000
2059 4 14.081 0.821 18.162 0.006 0.006 -0.005 0.000
2060 4 14.031 2.410 16.347 0.002 -0.004 0.002 0.000
2083 4 -0.837 4.646 18.086 -0.010 -0.008 -0.004 0.000
2084 4 -0.873 6.594 15.913 0.003 -0.002 -0.006 0.000
2085 4 1.328 5.074 15.965 0.000 -0.002 0.003 0.000
2086 4 0.842 6.775 17.987 -0.002 -0.008 0.001 0.000
2087 4 2.921 5.192 17.894 -0.009 -0.004 -0.001 0.000
2088 4 3.049 7.226 16.085 0.002 -0.012 -0.006 0.000
2089 4 5.117 5.078 15.928 -0.010 -0.002 -0.003 0.000
2090 4 4.699 6.684 18.320 0.003 0.001 -0.005 -0.000
2091 4 6.881 4.939 17.850 -0.000 0.001 0.002 -0.000
2092 4 7.357 6.356 15.998 -0.008 -0.003 -0.003 0.000
2093 4 8.717 4.287 15.910 -0.007 0.003 -0.008 -0.000
2094 4 9.112 6.482 18.137 -0.007 -0.001 -0.009 -0.000
2095 4 10.609 4.742 18.395 -0.010 -0.011 -0.007 0.000
2096 4 10.245 6.636 15.901 0.007 -0.012 0.007 0.000
2097 4 12.187 4.779 16.486 -0.014 -0.006 -0.009 0.000
2098 4 12.240 6.761 18.024 -0.009 0.002 -0.000 0.000
2099 4 14.334 4.399 18.467 0.004 -0.004 -0.001 0.000
2100 4 14.322 6.333 16.310 -0.006 -0.000 -0.003 0.000
2123 4 -0.773 8.630 17.841 -0.008 -0.007 -0.001 0.000
2124 4 -0.441 10.287 15.600 0.004 -0.005 -0.005 -0.000
2125 4 0.947 8.626 15.792 -0.001 0.005 0.003 0.000
2126 4 1.131 10.033 18.117 0.003 0.003 -0.007 -0.000
2127 4 3.207 8.655 18.291 0.003 -0.010 0.003 0.000
2128 4 2.968 10.157 15.933 -0.005 -0.000 0.001 0.000
2129 4 5.404 8.373 16.156 -0.002 0.005 0.007 -0.000
2130 4 4.901 10.460 18.229 0.003 0.001 -0.002 -0.000
2131 4 6.801 8.354 18.225 0.003 0.002 -0.013 -0.000
2132 4 7.025 10.549 16.087 0.005 0.001 0.014 -0.000
2133 4 8.678 8.852 16.150 0.003 -0.006 -0.004 0.000
2134 4 8.846 10.343 18.118 -0.002 -0.006 -0.008 0.000
2135 4 10.357 8.564 17.753 -0.000 -0.000 0.003 0.000
2136 4 10.768 10.482 16.302 0.002 0.001 0.000 0.000
2137 4 12.536 8.683 15.928 -0.001 0.005 -0.013 0.000
2138 4 12.624 10.542 17.765 -0.001 0.000 -0.007 0.000
2139 4 14.273 8.529 17.929 -0.000 -0.007 -0.011 -0.000
2140 4 14.302 10.558 15.794 0.002 0.003 0.002 0.000
2163 4 -0.487 12.101 17.842 0.004 0.007 0.000 -0.000
2164 4 -0.661 13.835 15.941 0.006 0.001 -0.006 -0.000
2165 4 1.107 11.993 15.995 -0.011 0.007 -0.001 0.000
2166 4 1.056 14.005 17.970 0.002 0.010 -0.009 -0.000
2167 4 2.829 12.188 17.683 -0.001 0.003 0.002 0.000
2168 4 2.806 13.845 15.900 0.002 0.001 0.005 0.000
2169 4 4.951 12.241 16.273 0.004 -0.001 0.005 0.000
2170 4 4.611 13.737 17.914 -0.001 0.002 -0.009 0.000
2171 4 6.932 12.344 17.957 -0.002 0.004 0.006 -0.000
2172 4 6.739 14.393 16.090 -0.001 0.002 -0.008 0.000
2173 4 8.871 12.635 16.117 -0.001 -0.001 -0.011 0.000
2174 4 8.540 14.388 18.093 -0.013 0.004 0.002 -0.000
2175 4 10.631 12.425 17.697 0.016 -0.001 0.011 0.000
2176 4 10.170 14.366 16.113 -0.009 -0.008 0.009 0.000
2177 4 12.511 12.429 15.921 0.002 -0.003 -0.005 0.000
2178 4 12.389 14.650 17.607 0.009 0.007 0.006 0.000
2179 4 14.586 12.390 17.552 0.004 0.001 0.000 0.000
2180 4 14.224 14.695 16.012 0.007 0.005 -0.013 0.000
2404 4 -1.413 -1.212 20.072 -0.001 -0.001 -0.001 0.000
2408 4 2.540 -0.873 20.265 0.002 0.006 -0.013 0.000
2412 4 6.919 -1.110 19.682 -0.012 0.002 -0.001 -0.000
2416 4 10.351 -1.356 20.056 0.001 0.006 0.000 -0.000
2420 4 15.073 -1.015 19.600 0.003 -0.003 -0.006 0.000
2444 4 -0.449 2.975 20.067 -0.008 0.007 0.003 -0.000
2445 4 1.113 1.290 19.987 -0.004 0.003 -0.008 -0.000
2448 4 3.050 2.941 20.017 0.002 -0.003 0.002 0.000
2449 4 4.486 0.838 19.678 0.005 -0.007 0.006 -0.000
2452 4 6.805 2.825 19.376 0.000 -0.004 0.014 -0.000
2453 4 8.972 0.596 19.748 0.003 0.002 -0.005 -0.000
2456 4 10.524 2.932 20.116 0.002 0.000 0.002 0.000
2457 4 12.569 0.635 20.157 -0.002 -0.008 -0.009 -0.000
2460 4 14.005 2.869 20.051 -0.004 0.003 0.001 -0.000
2484 4 -0.749 6.472 19.782 -0.003 0.007 -0.006 -0.000
2485 4 1.101 5.062 19.743 0.006 0.006 0.004 0.000
2488 4 2.774 6.581 19.919 0.006 0.004 -0.009 0.000
2489 4 4.988 4.774 19.954 0.000 -0.007 -0.004 -0.000
2492 4 6.858 6.468 19.702 -0.001 0.008 -0.000 -0.000
2493 4 8.807 4.708 20.096 0.001 -0.004 0.001 -0.000
2496 4 10.821 6.582 19.955 0.008 -0.008 0.002 -0.000
2497 4 12.292 4.743 20.220 -0.000 0.001 0.005 -0.000
2500 4 14.451 6.637 19.843 -0.000 0.007 0.002 -0.000
2524 4 -0.863 10.274 19.971 0.001 0.011 0.003 -0.000
2525 4 0.835 8.645 20.124 0.005 0.002 -0.003 0.000
2528 4 2.959 10.808 19.968 -0.003 -0.001 0.003 0.000
2529 4 5.200 8.278 20.163 0.009 0.004 0.005 -0.000
2532 4 7.106 10.356 20.067 -0.004 -0.004 0.004 0.000
2533 4 8.888 8.352 19.961 -0.001 0.001 -0.001 -0.000
2536 4 10.472 10.403 19.720 0.005 -0.006 0.003 0.000
2537 4 12.748 8.579 19.922 -0.016 -0.003 -0.002 -0.000
2540 4 14.533 9.998 20.143 -0.000 0.000 0.001 -0.000
2564 4 -1.004 14.166 19.573 -0.002 0.003 0.000 -0.000
2565 4 0.276 12.272 20.268 -0.001 -0.001 -0.002 0.000
2568 4 3.061 14.200 20.027 0.001 -0.001 -0.007 0.000
2569 4 4.575 12.567 20.495 -0.007 -0.011 0.004 0.000
2572 4 6.280 14.380 20.113 0.006 0.004 -0.005 -0.000
2573 4 8.761 12.440 19.935 -0.007 -0.009 -0.003 -0.000
2576 4 10.749 14.659 19.719 0.014 -0.001 -0.008 0.000
2577 4 12.131 12.414 19.625 0.003 0.003 -0.003 0.000
2580 4 14.185 14.370 19.574 0.001 0.013 -0.011 0.000
2527 4 3.262 8.646 21.497 -0.001 -0.008 -0.003 0.000
2483 4 -0.539 4.720 21.773 -0.005 0.004 0.002 -0.000
2499 4 14.827 4.742 21.370 -0.001 0.005 -0.005 -0.000
2535 4 11.013 8.386 21.890 0.002 -0.005 0.009 0.000
2526 4 1.475 10.705 22.005 0.005 0.002 -0.002 0.000
2446 4 1.342 3.317 21.745 0.011 -0.015 -0.003 -0.000
2487 4 3.386 4.966 21.909 -0.001 -0.003 -0.000 -0.000
2531 4 6.661 8.324 21.906 -0.009 0.002 -0.004 -0.000
2486 4 1.392 6.760 21.745 0.010 0.003 0.002 -0.000
2458 4 11.990 2.814 22.144 -0.007 0.010 -0.000 -0.000
2571 4 7.021 12.361 21.872 0.001 -0.004 -0.008 0.000
2563 4 -0.945 12.048 22.182 -0.010 0.007 -0.001 0.000
2498 4 12.756 6.375 21.860 0.003 -0.004 -0.004 0.000
2578 4 12.244 14.673 21.564 0.000 0.003 0.000 -0.000
2530 4 5.053 10.622 21.959 0.002 0.001 0.004 0.000
2459 4 14.652 0.676 21.785 -0.006 0.000 0.002 -0.000
2570 4 4.723 14.353 22.251 0.017 0.007 -0.003 0.000
2450 4 5.036 2.524 21.631 -0.001 0.005 -0.006 -0.000
2451 4 6.648 0.800 21.417 -0.003 -0.007 0.005 -0.000
2574 4 8.839 14.446 21.530 0.001 0.002 -0.000 0.000
2490 4 4.924 6.467 21.571 -0.005 0.004 -0.005 0.000
2491 4 7.031 4.360 21.938 0.004 -0.006 0.003 -0.000
2539 4 14.618 8.256 21.908 0.002 0.007 -0.010 -0.000
2414 4 8.562 -1.087 22.313 0.003 0.010 0.005 0.000
2494 4 9.212 6.667 21.857 -0.002 0.006 0.011 -0.000
2447 4 2.847 1.184 21.688 -0.004 -0.008 -0.001 -0.000
2534 4 9.161 10.363 21.827 0.006 0.004 0.006 0.000
2579 4 13.992 12.333 21.398 0.005 0.001 0.014 -0.000
2567 4 2.957 12.496 22.186 0.007 0.003 -0.002 0.000
2495 4 10.289 4.510 21.935 0.006 -0.008 0.004 0.000
2042 4 -2.954 2.757 18.021 -0.001 -0.005 0.003 -0.000
2523 4 -0.489 8.602 22.135 -0.003 -0.005 -0.001 -0.000
1321 4 -2.618 8.226 8.349 0.000 -0.012 -0.002 0.000
2566 4 0.421 14.911 21.936 0.004 0.000 -0.015 -0.000
1761 4 -2.731 12.148 11.984 -0.010 0.001 0.010 0.000
2455 4 10.484 0.711 22.121 -0.001 0.002 -0.001 0.000
2575 4 10.802 12.364 21.929 0.003 -0.008 -0.003 0.000
2454 4 8.471 2.598 21.435 -0.002 0.010 0.011 -0.000
2538 4 12.792 10.081 21.807 0.012 0.005 -0.008 -0.000
2011 4 6.657 -2.957 17.693 0.000 0.001 -0.001 -0.000
2002 4 -2.780 -0.546 17.765 -0.010 0.002 -0.003 0.000
2041 4 -2.304 1.565 15.936 -0.005 -0.002 0.002 -0.000
1203 4 -0.863 -2.733 10.423 -0.005 -0.006 -0.001 -0.000
442 4 -2.907 2.958 2.475 -0.008 0.002 0.006 -0.000
1662 4 15.950 2.896 14.160 -0.001 -0.001 -0.008 0.000
2441 4 -2.749 1.270 20.058 0.002 0.009 0.001 0.000
1682 4 -2.666 6.634 14.116 -0.002 -0.001 -0.006 0.000
522 4 -2.875 10.501 2.755 -0.003 -0.003 -0.004 0.000
2418 4 12.742 -1.401 22.134 -0.004 -0.007 -0.003 -0.000
44 4 -0.570 2.639 -2.826 0.003 -0.000 0.003 0.000
1007 4 2.789 15.903 6.623 0.002 0.006 -0.004 0.000
2201 4 -2.648 15.703 15.580 0.007 -0.007 0.003 0.000
2405 4 0.891 -2.879 19.881 0.006 0.000 0.001 0.000
2410 4 5.061 -1.084 22.134 0.005 0.011 0.002 0.000
2522 4 -2.507 10.446 21.852 0.004 -0.005 -0.001 0.000
1721 4 -2.714 8.360 12.068 0.005 0.001 -0.011 0.000
402 4 -2.778 -1.394 2.668 -0.011 -0.015 0.001 0.000
2562 4 -2.644 13.996 21.556 -0.001 -0.009 0.001 0.000
2203 4 -0.751 15.812 17.861 0.007 0.000 -0.005 -0.000
1602 4 -2.663 -0.701 14.359 -0.008 -0.001 -0.012 -0.000
1403 4 -0.727 15.860 9.930 0.001 0.002 0.002 0.000
2005 4 0.672 -2.929 16.378 0.008 -0.002 0.004 -0.000
1282 4 -2.705 6.262 10.049 -0.011 -0.006 -0.001 0.000
961 4 -2.787 12.429 4.420 -0.015 -0.001 -0.007 -0.000
805 4 1.122 -2.778 4.607 0.010 -0.006 0.002 0.000
407 4 2.912 -2.907 2.570 -0.000 -0.009 -0.001 0.000
2003 4 -1.612 -2.532 17.900 -0.007 0.003 0.003 0.000
1405 4 1.217 15.918 8.408 -0.009 0.007 0.004 0.000
1413 4 8.803 16.017 8.613 -0.012 -0.003 0.003 0.000
803 4 -0.753 -2.583 6.452 0.013 0.005 0.000 -0.000
1207 4 3.236 -2.788 10.238 -0.002 -0.003 -0.007 -0.000
481 4 -2.950 4.697 0.757 0.003 0.011 0.007 -0.000
1241 4 -2.850 0.895 8.372 -0.007 0.009 -0.006 0.000
1407 4 2.898 15.637 10.566 -0.006 -0.002 -0.001 -0.000
1417 4 12.140 15.924 8.391 -0.006 -0.001 0.004 -0.000
2406 4 0.611 -0.810 21.849 -0.010 0.015 -0.007 0.000
8 4 2.997 -1.048 -3.002 0.004 0.002 -0.004 0.000
102 4 15.849 6.874 -1.300 -0.007 0.002 -0.011 -0.000
1741 4 16.093 8.415 12.179 -0.003 -0.008 -0.005 -0.000
1702 4 15.737 6.548 14.076 0.003 -0.007 -0.008 0.000
2582 4 16.074 14.241 21.460 0.008 0.001 0.012 -0.000
2082 4 -2.321 6.734 17.548 0.000 -0.002 0.005 0.000
41 4 -2.803 0.832 -3.044 0.009 0.006 -0.001 -0.000
2162 4 -2.813 13.905 17.505 -0.003 0.013 -0.001 -0.000
922 4 -2.699 10.600 6.284 -0.003 0.012 -0.002 -0.000
2561 4 -2.574 12.169 19.858 0.009 0.006 -0.003 -0.000
2481 4 -2.823 5.044 20.057 -0.004 0.005 -0.000 -0.000