ITEM: TIMESTEP
1000
ITEM: NUMBER OF ATOMS
32000
ITEM: BOX BOUNDS pp pp pp
-2.013304 72.493304
-2.002740 72.482740
-2.001686 72.481686
ITEM: ATOMS id type x y z vx vy vz q
6 4 1.667 -0.249 -0.192 -0.010 -0.001 -0.007 0.000
10 4 5.469 0.069 -0.230 0.002 0.005 -0.001 0.000
14 4 9.102 -0.050 -0.242 -0.003 -0.006 0.001 0.000
18 4 13.043 -0.065 -0.456 -0.003 -0.005 0.006 -0.000
43 4 -0.329 2.065 -0.113 -0.011 -0.004 -0.007 0.000
46 4 1.869 3.888 -0.032 -0.004 -0.001 0.003 -0.000
47 4 3.801 1.903 -0.159 0.011 -0.001 0.002 -0.000
50 4 5.498 3.586 -0.096 -0.001 0.001 -0.004 -0.000
51 4 7.316 1.989 -0.040 0.010 -0.009 0.005 -0.000
54 4 8.959 3.418 -0.019 0.006 -0.003 -0.004 0.000
55 4 10.960 1.632 -0.121 -0.002 -0.006 0.001 -0.000
58 4 12.938 3.649 -0.185 -0.000 -0.005 -0.001 -0.000
59 4 14.741 1.683 0.062 -0.011 -0.001 0.005 -0.000
83 4 -0.324 5.534 -0.412 0.006 -0.003 0.004 0.000
86 4 1.792 7.339 0.012 0.006 0.003 0.007 -0.000
87 4 3.919 5.452 -0.435 -0.000 0.002 0.002 -0.000
90 4 5.680 7.413 -0.036 -0.001 0.002 0.006 -0.000
91 4 7.467 5.588 -0.206 -0.001 -0.007 0.005 0.000
94 4 9.227 7.433 -0.270 0.004 -0.005 0.003 -0.000
95 4 11.071 5.417 -0.130 0.006 -0.005 0.011 0.000
98 4 12.733 7.640 0.123 -0.001 0.000 -0.009 -0.000
99 4 14.064 5.551 -0.058 -0.001 0.006 -0.007 0.000
123 4 0.037 9.312 0.233 -0.003 0.002 0.004 -0.000
126 4 1.940 11.392 0.127 0.009 -0.010 0.008 -0.000
127 4 3.708 9.170 -0.105 -0.004 -0.005 0.006 -0.000
130 4 5.318 11.317 -0.133 -0.004 -0.006 -0.008 -0.000
131 4 7.319 9.026 -0.159 0.005 0.004 -0.005 -0.000
134 4 9.097 11.104 -0.118 -0.004 0.000 -0.007 0.000
135 4 10.986 9.216 -0.052 -0.001 -0.002 -0.004 -0.000
138 4 12.847 11.001 0.001 -0.000 0.011 0.008 -0.000
139 4 14.908 9.263 -0.125 -0.001 0.000 0.001 0.000
163 4 -0.174 12.680 -0.146 -0.004 -0.001 0.009 0.000
166 4 1.777 14.731 0.013 0.011 0.007 0.000 -0.000
167 4 3.628 12.965 -0.196 0.002 -0.009 -0.006 -0.000
170 4 5.533 14.998 -0.058 -0.010 -0.000 0.002 0.000
171 4 7.204 13.135 -0.169 -0.003 0.000 -0.004 0.000
174 4 9.154 14.891 -0.507 -0.002 0.003 0.004 0.000
175 4 11.463 12.776 -0.007 0.000 0.004 0.007 -0.000
178 4 12.870 14.719 -0.107 0.007 0.001 -0.002 0.000
179 4 14.670 12.774 0.130 -0.000 0.005 -0.007 0.000
404 4 -0.117 -0.081 1.847 0.002 0.010 -0.000 -0.000
406 4 1.550 -0.089 3.386 -0.005 -0.002 -0.000 0.000
408 4 3.654 -0.091 1.556 0.000 0.004 -0.005 -0.000
410 4 5.270 -0.182 3.862 -0.008 -0.002 0.001 -0.000
412 4 7.441 -0.156 1.739 0.016 0.005 -0.007 -0.000
414 4 8.925 -0.075 3.753 -0.004 0.003 0.006 0.000
416 4 10.811 -0.172 1.957 -0.014 0.008 -0.004 0.000
418 4 13.016 -0.244 3.552 0.001 -0.004 0.001 -0.000
420 4 14.843 -0.178 2.131 -0.001 0.004 0.004 -0.000
443 4 0.093 2.085 3.483 0.001 -0.010 -0.002 0.000
444 4 -0.387 3.845 1.410 -0.006 0.004 0.010 -0.000
445 4 1.608 1.882 1.506 0.009 -0.008 0.001 0.000
446 4 1.985 3.776 3.521 -0.004 0.002 -0.001 0.000
447 4 3.489 1.700 3.125 -0.013 0.001 0.008 -0.000
448 4 3.655 3.670 1.768 0.003 -0.007 -0.002 -0.000
449 4 5.547 1.591 1.898 0.002 -0.006 0.003 0.000
450 4 5.522 3.507 3.455 -0.002 -0.002 -0.013 -0.000
451 4 7.116 1.403 3.650 0.008 -0.004 0.001 0.000
452 4 7.491 3.429 1.901 -0.002 -0.002 -0.004 -0.000
453 4 9.318 1.716 1.758 -0.003 -0.002 0.000 0.000
454 4 9.172 3.845 3.500 0.001 -0.006 0.001 -0.000
455 4 11.081 1.644 3.751 0.010 0.003 -0.001 -0.000
456 4 11.011 3.375 1.823 0.002 0.007 -0.001 0.000
457 4 12.941 1.789 2.083 -0.010 -0.003 -0.010 0.000
458 4 12.391 3.710 3.638 0.002 -0.006 -0.004 -0.000
459 4 14.810 1.933 3.864 0.010 -0.001 -0.005 -0.000
460 4 14.275 3.654 1.803 -0.001 0.008 0.005 -0.000
483 4 -0.009 5.187 3.444 0.012 0.005 0.007 0.000
484 4 -0.197 7.171 1.587 -0.010 0.008 -0.004 -0.000
485 4 1.656 5.531 1.574 0.008 0.002 -0.002 0.000
486 4 1.572 7.242 3.325 -0.004 -0.001 0.005 -0.000
487 4 3.322 5.642 3.454 -0.008 -0.002 0.000 0.000
488 4 3.717 7.151 1.674 0.001 -0.000 -0.003 -0.000
489 4 5.691 5.424 1.739 0.005 0.002 0.002 -0.000
490 4 5.679 7.200 3.389 0.009 0.002 -0.005 -0.000
491 4 7.376 5.321 3.725 0.011 0.002 -0.001 0.000
492 4 7.539 7.382 1.913 -0.005 0.007 -0.000 0.000
493 4 9.078 5.529 1.581 -0.014 0.004 0.001 -0.000
494 4 9.200 7.268 3.462 0.002 -0.011 -0.009 -0.000
495 4 11.010 5.464 3.671 0.000 -0.013 0.002 0.000
496 4 10.730 7.310 1.812 0.001 0.003 -0.001 0.000
497 4 12.688 5.745 1.822 0.001 0.001 0.005 0.000
498 4 12.755 7.259 3.746 -0.002 -0.003 -0.010 -0.000
499 4 14.627 5.472 3.856 0.003 0.009 -0.001 0.000
500 4 14.607 7.005 1.691 -0.009 0.001 -0.006 0.000
523 4 0.216 9.076 3.617 0.010 0.002 -0.001 -0.000
524 4 0.151 11.046 1.767 0.005 0.009 0.008 -0.000
525 4 1.966 9.194 1.560 -0.003 -0.005 -0.007 0.000
526 4 1.692 11.149 3.362 0.003 -0.001 0.002 -0.000
527 4 3.663 8.941 3.600 0.005 -0.006 -0.010 -0.000
528 4 3.884 11.137 1.953 -0.001 0.001 -0.013 -0.000
529 4 5.530 9.143 1.701 0.003 -0.002 -0.004 0.000
530 4 5.749 11.139 3.816 -0.001 0.000 -0.005 0.000
531 4 7.388 9.390 3.367 0.004 0.010 -0.005 -0.000
532 4 7.175 11.394 1.535 0.008 0.006 -0.009 -0.000
533 4 9.188 9.192 1.469 0.005 0.010 0.004 -0.000
534 4 9.004 11.168 3.535 0.005 -0.003 -0.000 0.000
535 4 10.846 9.251 3.375 0.000 0.006 0.003 -0.000
536 4 11.034 10.998 1.794 -0.003 0.002 -0.003 -0.000
537 4 12.907 9.325 1.744 -0.003 0.003 0.010 0.000
538 4 12.874 10.988 3.512 0.003 0.001 0.008 -0.000
539 4 14.528 9.465 3.615 -0.003 -0.010 0.002 -0.000
540 4 14.679 10.972 1.657 0.013 -0.006 0.009 -0.000
563 4 0.047 12.634 3.589 -0.001 -0.008 -0.002 -0.000
564 4 -0.041 14.621 1.771 0.008 -0.003 -0.006 -0.000
565 4 1.830 12.872 2.020 -0.020 -0.008 -0.004 0.000
566 4 1.763 14.646 3.752 0.009 0.016 -0.011 -0.000
567 4 3.909 12.565 3.975 0.003 0.005 -0.006 -0.000
568 4 3.613 14.788 1.943 -0.002 -0.011 -0.002 -0.000
569 4 5.514 13.061 1.720 0.002 0.005 0.001 0.000
570 4 5.706 14.760 3.699 -0.004 0.002 -0.002 0.000
571 4 7.542 13.023 3.734 -0.010 -0.002 0.001 -0.000
572 4 7.310 14.853 1.714 -0.003 0.000 -0.001 -0.000
573 4 9.354 12.865 1.526 0.002 0.005 0.009 -0.000
574 4 9.146 14.885 3.694 -0.001 0.006 0.004 0.000
575 4 11.031 12.905 3.654 0.004 0.003 -0.002 -0.000
576 4 10.948 14.765 1.627 -0.002 -0.000 -0.003 -0.000
577 4 12.690 13.057 1.897 -0.004 -0.006 -0.007 0.000
578 4 12.896 14.753 3.762 0.006 0.002 -0.000 -0.000
579 4 14.768 12.936 3.583 0.006 0.008 0.001 -0.000
580 4 14.767 14.755 1.834 -0.003 0.002 -0.007 -0.000
804 4 -0.029 0.079 5.427 -0.008 -0.003 -0.003 -0.000
806 4 1.785 -0.067 7.346 0.010 0.011 0.004 -0.000
808 4 3.672 0.007 5.573 0.001 0.004 0.002 -0.000
810 4 5.299 0.055 7.224 0.008 0.010 -0.005 -0.000
812 4 7.277 0.028 5.515 -0.000 0.001 -0.015 -0.000
814 4 9.257 -0.050 7.455 -0.004 0.002 0.003 -0.000
816 4 10.724 -0.005 5.315 -0.008 -0.012 -0.010 0.000
818 4 12.946 -0.116 7.218 0.004 0.000 0.001 -0.000
820 4 14.535 -0.198 5.382 -0.003 -0.009 -0.003 -0.000
843 4 0.237 1.825 7.073 -0.001 -0.003 0.002 0.000
844 4 -0.028 3.596 5.496 -0.002 0.003 -0.003 0.000
845 4 1.742 1.930 5.263 -0.001 -0.011 0.011 -0.000
846 4 1.621 3.749 7.459 0.002 -0.006 -0.009 -0.000
847 4 3.511 2.075 7.570 -0.006 -0.004 0.006 0.000
848 4 3.398 3.853 5.265 0.001 0.000 0.001 0.000
849 4 5.361 2.049 5.307 -0.002 0.002 0.004 0.000
850 4 5.467 3.659 7.312 0.010 0.005 0.000 -0.000
851 4 7.228 1.784 7.337 -0.004 -0.006 -0.002 0.000
852 4 7.558 3.478 5.614 0.002 0.009 -0.002 -0.000
853 4 9.299 1.817 5.728 -0.001 0.006 -0.010 0.000
854 4 9.119 3.675 7.351 0.007 0.005 -0.001 -0.000
855 4 11.152 1.849 7.180 0.002 -0.007 -0.006 -0.000
856 4 10.999 3.815 5.777 -0.006 -0.007 0.000 0.000
857 4 13.000 1.843 5.240 -0.000 0.002 0.010 0.000
858 4 12.946 3.944 7.224 0.003 -0.004 -0.004 -0.000
859 4 14.744 1.530 7.005 -0.008 0.003 -0.005 -0.000
860 4 14.745 3.837 5.532 -0.014 -0.000 -0.002 0.000
883 4 0.170 5.548 7.234 -0.006 -0.001 0.001 0.000
884 4 0.006 6.992 5.251 -0.007 0.011 0.001 0.000
885 4 1.950 5.387 5.393 -0.007 -0.009 0.003 -0.000
886 4 1.710 7.210 7.482 0.006 -0.003 -0.003 -0.000
887 4 3.809 5.366 7.375 -0.011 0.005 0.001 0.000
888 4 3.807 7.277 5.430 -0.001 0.008 0.008 0.000
889 4 5.447 5.602 5.498 -0.001 -0.008 -0.000 -0.000
890 4 5.792 7.452 7.430 -0.001 0.013 -0.001 -0.000
891 4 7.458 5.399 7.276 0.005 0.002 0.002 0.000
892 4 7.535 7.323 5.329 -0.003 -0.002 0.006 0.000
893 4 9.460 5.838 5.421 0.013 0.003 -0.002 -0.000
894 4 9.060 7.351 7.334 0.006 0.002 -0.003 -0.000
895 4 10.873 5.736 7.384 0.006 0.007 0.002 0.000
896 4 11.040 7.668 5.403 0.005 0.002 0.004 0.000
897 4 12.669 5.477 5.355 0.004 -0.016 -0.004 0.000
898 4 12.755 7.428 7.141 0.004 -0.005 0.011 -0.000
899 4 14.755 5.643 7.107 -0.001 -0.002 0.003 0.000
900 4 14.883 7.632 5.025 0.008 -0.007 -0.003 0.000
923 4 -0.088 8.885 7.155 -0.008 0.008 0.004 0.000
924 4 -0.031 10.963 5.257 -0.005 -0.003 -0.006 -0.000
925 4 1.871 8.877 5.834 -0.003 -0.003 -0.014 -0.000
926 4 1.618 10.923 7.308 -0.010 -0.008 -0.005 -0.000
927 4 3.679 9.039 7.603 -0.001 -0.009 0.008 0.000
928 4 3.530 10.795 5.508 -0.000 -0.013 -0.004 0.000
929 4 5.591 9.262 5.562 0.011 -0.010 0.002 -0.000
930 4 5.502 10.965 7.287 0.002 -0.006 -0.008 -0.000
931 4 7.501 9.272 7.397 0.002 0.003 0.003 0.000
932 4 7.485 11.053 5.448 -0.004 -0.002 0.001 -0.000
933 4 9.290 9.027 5.271 0.003 -0.006 0.004 -0.000
934 4 9.369 11.155 7.366 -0.001 -0.003 0.005 0.000
935 4 11.213 8.952 7.183 -0.007 0.005 -0.004 0.000
936 4 10.962 11.090 5.285 -0.006 0.004 -0.001 0.000
937 4 12.601 9.305 5.228 0.007 -0.004 -0.006 0.000
938 4 12.609 11.037 7.106 0.007 -0.008 0.006 -0.000
939 4 14.263 9.106 7.070 0.005 -0.011 -0.001 0.000
940 4 14.436 11.223 5.462 -0.003 -0.001 0.002 -0.000
963 4 -0.141 12.487 7.180 -0.010 -0.010 -0.001 0.000
964 4 -0.097 14.589 5.274 -0.001 0.011 0.007 -0.000
965 4 1.740 12.828 5.104 -0.010 -0.006 -0.010 0.000
966 4 2.040 14.442 7.129 0.002 -0.001 -0.004 -0.000
967 4 3.598 12.847 7.440 0.014 0.002 -0.005 -0.000
968 4 3.766 14.579 5.417 0.003 -0.008 0.016 0.000
969 4 5.586 12.879 5.606 0.004 0.005 0.005 0.000
970 4 5.777 15.014 7.152 -0.002 -0.004 0.001 -0.000
971 4 7.071 12.615 7.439 0.002 -0.007 0.002 0.000
972 4 7.504 14.660 5.527 -0.006 0.005 0.004 0.000
973 4 9.287 12.815 5.433 -0.003 -0.003 0.002 -0.000
974 4 8.879 14.782 7.486 -0.003 0.006 0.006 0.000
975 4 10.824 12.925 7.614 -0.002 0.005 -0.008 0.000
976 4 11.054 14.563 5.465 -0.010 0.002 0.002 -0.000
977 4 12.717 12.859 5.554 0.002 0.001 -0.002 0.000
978 4 13.006 14.664 7.218 -0.000 -0.012 -0.008 -0.000
979 4 14.753 12.880 7.199 -0.004 -0.009 -0.009 0.000
980 4 14.761 14.358 5.487 0.005 0.006 0.011 0.000
1204 4 -0.152 -0.467 8.832 -0.007 -0.000 -0.007 -0.000
1206 4 1.464 -0.556 10.578 -0.000 -0.001 0.005 0.000
1208 4 3.664 -0.095 8.832 0.005 0.015 0.004 -0.000
1210 4 5.141 -0.171 11.293 -0.001 0.006 0.001 -0.000
1212 4 7.301 0.092 9.630 -0.008 0.004 0.006 -0.000
1214 4 9.174 -0.216 11.178 -0.001 0.007 -0.002 0.000
1216 4 11.111 -0.091 9.327 -0.003 0.002 -0.005 0.000
1218 4 13.081 -0.236 10.798 0.003 -0.001 -0.004 -0.000
1220 4 14.673 -0.173 8.721 -0.012 0.002 0.001 0.000
1243 4 -0.260 1.831 10.975 -0.002 -0.006 0.005 -0.000
1244 4 -0.155 3.753 8.999 0.009 -0.001 -0.009 -0.000
1245 4 1.659 1.665 9.176 -0.002 0.000 0.002 -0.000
1246 4 1.571 3.660 11.232 0.002 -0.002 0.007 -0.000
1247 4 3.377 1.440 11.145 0.002 0.001 -0.001 -0.000
1248 4 3.434 3.989 9.331 -0.006 -0.010 -0.003 -0.000
1249 4 5.372 1.982 9.212 -0.004 0.003 -0.003 0.000
1250 4 5.337 3.121 11.093 0.004 -0.006 -0.003 0.000
1251 4 7.305 1.699 11.403 -0.002 0.005 0.000 0.000
1252 4 7.509 3.511 9.332 0.010 0.004 0.006 -0.000
1253 4 9.241 1.644 9.249 0.002 -0.004 0.004 -0.000
1254 4 9.230 3.525 11.433 -0.004 0.001 0.006 0.000
1255 4 11.113 1.714 11.078 0.005 0.006 -0.005 -0.000
1256 4 11.052 3.734 8.984 -0.002 -0.003 0.001 0.000
1257 4 12.933 2.119 9.057 0.000 -0.004 0.007 0.000
1258 4 12.771 3.885 10.609 -0.007 0.011 -0.007 -0.000
1259 4 14.677 1.950 10.608 0.009 -0.002 -0.000 -0.000
1260 4 15.037 3.705 8.631 -0.008 0.003 0.002 0.000
1283 4 -0.506 5.503 10.985 0.010 -0.008 -0.002 0.000
1284 4 -0.156 7.434 9.306 0.008 0.000 -0.006 0.000
1285 4 1.380 5.545 9.578 0.006 0.010 -0.008 -0.000
1286 4 1.776 7.667 11.328 -0.011 -0.004 0.002 -0.000
1287 4 3.344 5.570 11.100 0.001 0.003 0.004 0.000
1288 4 3.641 7.237 9.383 0.000 0.008 0.004 0.000
1289 4 5.536 5.635 9.472 0.002 0.002 -0.007 -0.000
1290 4 5.532 7.701 10.917 -0.002 -0.003 0.002 -0.000
1291 4 7.055 5.509 10.997 -0.005 -0.003 0.004 0.000
1292 4 7.838 7.424 9.575 -0.005 -0.001 0.004 0.000
1293 4 9.305 5.293 9.379 0.010 0.002 0.001 -0.000
1294 4 8.951 7.062 11.498 0.006 -0.005 -0.001 -0.000
1295 4 10.794 5.341 11.233 -0.003 -0.004 0.003 0.000
1296 4 10.685 7.116 9.269 -0.009 -0.009 0.001 0.000
1297 4 12.959 5.641 8.946 -0.003 -0.003 0.003 -0.000
1298 4 13.025 7.457 11.134 0.003 0.000 0.008 -0.000
1299 4 14.764 5.359 10.996 -0.006 0.004 -0.016 0.000
1300 4 14.465 7.362 9.035 0.004 -0.002 -0.002 0.000
1323 4 -0.260 9.079 11.040 -0.007 -0.006 0.004 -0.000
1324 4 -0.002 10.997 9.270 -0.000 -0.005 0.002 -0.000
1325 4 1.670 9.322 9.136 0.004 -0.006 0.007 0.000
1326 4 1.624 11.068 10.898 -0.005 -0.004 0.004 0.000
1327 4 3.674 9.355 10.899 0.000 -0.002 0.003 -0.000
1328 4 3.666 10.937 9.150 0.001 -0.001 0.006 -0.000
1329 4 5.744 9.362 9.296 -0.001 -0.005 0.009 -0.000
1330 4 5.585 10.792 11.074 -0.008 0.003 -0.002 -0.000
1331 4 7.715 9.085 11.240 0.008 -0.005 0.005 -0.000
1332 4 7.376 11.381 9.405 -0.003 0.001 0.004 -0.000
1333 4 9.167 9.433 9.232 -0.006 0.000 -0.010 -0.000
1334 4 9.179 11.146 11.129 0.008 0.002 0.002 0.000
1335 4 10.704 8.965 11.258 0.000 0.008 -0.010 -0.000
1336 4 11.087 11.052 9.263 -0.006 0.001 0.005 0.000
1337 4 12.609 9.048 8.717 -0.002 0.006 0.007 0.000
1338 4 12.603 10.862 11.335 0.001 -0.000 0.004 -0.000
1339 4 14.469 9.245 11.112 0.008 -0.012 -0.003 0.000
1340 4 14.429 10.972 9.091 -0.001 0.005 -0.002 -0.000
1363 4 -0.025 13.024 10.675 0.006 0.003 -0.001 -0.000
1364 4 0.125 14.772 8.607 0.009 -0.003 -0.000 0.000
1365 4 1.895 12.715 8.993 0.007 0.003 -0.002 0.000
1366 4 1.640 14.927 10.966 -0.008 -0.010 -0.011 0.000
1367 4 3.406 12.827 10.956 -0.003 0.001 0.011 -0.000
1368 4 3.671 14.804 9.195 0.004 0.003 -0.001 -0.000
1369 4 5.115 12.833 9.532 0.009 -0.004 -0.005 0.000
1370 4 5.276 14.965 11.071 0.001 0.004 -0.013 0.000
1371 4 7.190 13.526 11.361 -0.011 -0.004 -0.011 -0.000
1372 4 7.082 14.723 9.147 0.006 0.001 0.004 -0.000
1373 4 9.231 12.969 9.467 0.004 -0.002 0.001 -0.000
1374 4 9.246 14.431 11.270 -0.007 -0.000 -0.001 0.000
1375 4 11.165 12.944 11.194 0.008 0.009 -0.005 -0.000
1376 4 11.215 14.602 9.136 -0.002 -0.004 -0.006 0.000
1377 4 13.098 12.832 8.966 0.012 -0.001 0.008 0.000
1378 4 12.817 14.587 11.012 0.001 0.012 -0.005 -0.000
1379 4 14.854 12.972 10.714 0.013 -0.004 0.001 -0.000
1380 4 14.787 14.702 8.920 -0.004 -0.013 0.001 0.000
1604 4 -0.510 -0.261 12.701 0.003 0.004 0.001 0.000
1606 4 1.775 -0.273 14.874 -0.001 0.005 0.007 0.000
1608 4 3.250 -0.539 12.879 -0.010 0.004 -0.002 0.000
1610 4 4.942 -0.205 14.838 0.006 -0.013 -0.007 0.000
1612 4 7.268 0.074 12.909 0.001 -0.005 -0.007 -0.000
1614 4 9.100 -0.152 14.592 -0.011 -0.001 -0.000 0.000
1616 4 11.289 -0.204 12.870 -0.010 -0.002 0.009 0.000
1618 4 13.107 -0.307 14.909 0.007 0.000 -0.000 -0.000
1620 4 14.973 0.016 12.572 -0.003 -0.001 0.001 -0.000
1643 4 -0.129 1.621 14.622 -0.006 0.010 -0.004 -0.000
1644 4 -0.156 3.833 13.096 -0.007 -0.001 0.004 -0.000
1645 4 1.482 1.314 12.521 0.003 0.005 0.001 -0.000
1646 4 1.793 3.320 14.159 -0.005 -0.000 -0.003 0.000
1647 4 3.351 1.462 14.679 0.001 0.010 0.004 -0.000
1648 4 3.512 3.482 12.745 0.006 0.001 -0.002 0.000
1649 4 4.969 1.319 12.962 0.002 0.010 0.004 0.000
1650 4 5.313 3.459 14.498 -0.006 -0.012 -0.003 -0.000
1651 4 7.360 1.579 14.919 0.004 -0.000 -0.008 0.000
1652 4 7.275 3.407 13.004 -0.004 0.005 0.002 -0.000
1653 4 9.664 1.557 12.887 0.010 -0.001 -0.003 -0.000
1654 4 9.451 3.244 14.713 0.013 0.006 0.008 0.000
1655 4 11.432 1.674 14.597 -0.002 -0.007 0.002 0.000
1656 4 11.526 3.580 12.949 0.000 -0.004 0.003 -0.000
1657 4 13.266 1.632 12.545 -0.001 -0.007 0.010 0.000
1658 4 13.013 3.516 14.603 -0.001 -0.005 -0.001 -0.000
1659 4 14.794 1.641 14.624 -0.005 0.000 -0.000 0.000
1660 4 14.593 3.411 12.723 0.010 0.003 0.003 -0.000
1683 4 0.344 5.482 14.556 0.003 -0.004 0.002 0.000
1684 4 -0.017 7.463 12.830 -0.002 -0.001 -0.001 0.000
1685 4 1.801 5.620 12.684 0.003 -0.009 0.003 -0.000
1686 4 1.756 7.413 14.593 -0.007 0.001 0.006 -0.000
1687 4 3.556 5.267 14.538 -0.001 -0.008 -0.006 -0.000
1688 4 3.623 7.271 12.747 -0.005 0.002 0.001 0.000
1689 4 5.196 5.398 12.430 -0.001 -0.011 0.007 -0.000
1690 4 5.120 7.085 14.391 -0.008 -0.007 0.013 -0.000
1691 4 7.183 5.061 14.635 -0.003 0.004 0.006 0.000
1692 4 7.059 7.052 13.088 0.004 0.006 -0.008 0.000
1693 4 9.367 5.408 13.264 -0.005 -0.004 0.001 -0.000
1694 4 9.068 7.143 14.696 0.005 0.004 -0.005 0.000
1695 4 10.999 5.465 14.959 -0.002 -0.012 -0.001 0.000
1696 4 11.165 7.537 13.165 -0.002 0.001 0.001 0.000
1697 4 13.149 5.338 12.629 0.011 -0.005 0.006 0.000
1698 4 12.972 7.006 14.826 0.003 0.008 0.005 -0.000
1699 4 14.978 5.422 14.538 -0.003 0.001 0.005 0.000
1700 4 14.652 7.224 12.924 0.001 -0.006 -0.004 -0.000
1723 4 0.116 9.143 14.790 -0.008 0.005 0.003 -0.000
1724 4 -0.353 11.231 13.024 -0.005 -0.003 0.005 -0.000
1725 4 1.636 9.651 12.826 0.006 -0.002 0.000 0.000
1726 4 1.546 11.227 14.799 0.000 0.005 0.006 0.000
1727 4 3.532 9.216 14.641 0.007 -0.009 0.006 -0.000
1728 4 3.561 11.134 12.858 0.001 0.002 -0.007 0.000
1729 4 5.337 9.151 12.835 0.005 -0.004 0.004 -0.000
1730 4 5.355 10.795 14.869 0.002 0.001 0.007 0.000
1731 4 7.145 9.027 14.981 0.004 0.011 -0.010 0.000
1732 4 7.479 10.872 13.008 -0.002 0.004 0.003 -0.000
1733 4 9.050 9.235 13.445 -0.007 0.009 0.005 -0.000
1734 4 9.017 10.990 14.896 0.006 -0.004 0.003 -0.000
1735 4 11.397 9.785 14.758 -0.003 -0.006 0.002 -0.000
1736 4 10.977 11.030 12.912 0.005 0.003 0.003 -0.000
1737 4 13.212 9.205 13.218 -0.007 -0.005 0.004 0.000
1738 4 13.073 11.276 15.023 0.005 -0.004 -0.001 0.000
1739 4 14.697 9.163 14.889 -0.003 -0.007 0.005 0.000
1740 4 14.760 10.879 12.638 -0.008 0.004 -0.001 -0.000
1763 4 -0.121 13.083 14.856 -0.004 0.009 0.003 -0.000
1764 4 -0.113 14.598 13.169 -0.003 -0.004 0.001 -0.000
1765 4 1.575 12.930 12.860 0.000 0.000 -0.007 0.000
1766 4 1.851 14.802 14.760 0.005 0.014 0.002 0.000
1767 4 3.248 12.602 14.804 0.000 0.001 -0.008 -0.000
1768 4 3.447 14.805 12.800 0.002 0.001 -0.005 0.000
1769 4 5.224 12.870 13.119 0.003 0.002 0.011 0.000
1770 4 4.747 14.396 14.937 -0.011 -0.000 -0.003 0.000
1771 4 6.987 12.770 15.114 0.004 0.002 0.007 0.000
1772 4 6.970 14.612 13.308 -0.004 0.000 -0.002 -0.000
1773 4 8.916 12.827 13.182 0.004 -0.006 0.004 -0.000
1774 4 9.052 14.909 14.636 0.008 0.014 -0.009 0.000
1775 4 11.062 12.988 14.560 0.004 -0.003 -0.003 -0.000
1776 4 11.120 14.893 12.886 0.004 0.004 -0.007 0.000
1777 4 13.143 12.900 12.690 -0.006 -0.004 0.009 0.000
1778 4 12.974 14.410 14.514 0.008 -0.001 -0.008 0.000
1779 4 14.954 12.904 14.476 -0.011 0.010 -0.001 -0.000
1780 4 14.956 14.588 12.718 0.006 0.011 0.007 -0.000
2004 4 -0.233 -0.321 16.518 0.007 -0.001 -0.004 -0.000
2006 4 1.551 -0.166 18.710 -0.002 0.003 0.010 -0.000
2008 4 3.174 -0.238 16.899 -0.009 0.010 0.005 0.000
2010 4 5.184 -0.201 18.511 -0.015 -0.002 -0.004 -0.000
2012 4 6.998 -0.444 16.474 -0.005 -0.007 0.000 -0.000
2014 4 8.930 -0.222 18.583 0.002 0.006 0.006 -0.000
2016 4 11.110 0.087 16.667 0.001 -0.006 0.000 -0.000
2018 4 12.828 -0.308 18.615 0.012 -0.002 0.000 -0.000
2020 4 14.772 -0.403 16.770 -0.002 0.009 -0.009 -0.000
2043 4 0.057 1.630 18.183 -0.001 -0.004 -0.014 0.000
2044 4 -0.339 3.063 16.277 0.013 -0.002 -0.001 0.000
2045 4 1.846 1.733 16.352 -0.002 0.012 0.004 0.000
2046 4 1.409 3.600 18.151 -0.000 0.000 -0.008 0.000
2047 4 3.601 2.113 18.382 -0.001 0.010 -0.004 -0.000
2048 4 3.434 3.360 16.384 0.001 0.004 0.001 0.000
2049 4 5.487 1.559 16.328 0.009 -0.002 0.002 0.000
2050 4 5.490 3.499 18.469 -0.003 -0.006 -0.013 -0.000
2051 4 7.342 1.842 18.259 0.005 -0.009 -0.003 -0.000
2052 4 7.358 3.543 16.429 -0.008 -0.004 0.006 -0.000
2053 4 8.994 1.497 16.709 0.001 0.002 0.003 0.000
2054 4 9.290 3.921 18.369 -0.013 -0.002 0.003 0.000
2055 4 11.158 1.635 18.320 0.002 -0.003 0.002 0.000
2056 4 10.890 3.125 16.509 -0.003 0.009 -0.005 -0.000
2057 4 13.125 1.592 16.678 -0.001 -0.009 -0.003 0.000
2058 4 13.078 3.713 18.534 0.008 -0.000 -0.010 -0.000
2059 4 14.975 1.626 18.611 0.010 0.000 0.005 0.000
2060 4 14.929 3.172 16.662 -0.002 0.007 0.008 -0.000
2083 4 -0.333 5.254 18.455 0.002 -0.002 -0.007 0.000
2084 4 -0.022 7.371 16.867 0.007 -0.004 0.005 0.000
2085 4 1.704 5.152 16.301 0.008 0.006 -0.005 -0.000
2086 4 1.766 7.144 18.789 0.005 -0.005 -0.004 -0.000
2087 4 3.431 4.963 18.387 -0.008 0.008 -0.010 -0.000
2088 4 3.129 7.243 16.532 0.003 0.001 0.000 0.000
2089 4 4.889 5.461 16.393 0.006 0.002 0.006 -0.000
2090 4 5.379 7.074 18.388 -0.006 0.006 0.008 -0.000
2091 4 7.355 5.449 18.282 0.007 0.000 0.002 0.000
2092 4 6.885 7.074 16.466 -0.009 -0.006 -0.001 -0.000
2093 4 9.292 5.586 16.512 0.003 -0.002 -0.004 -0.000
2094 4 9.392 7.311 18.367 -0.000 -0.005 0.003 0.000
2095 4 11.112 5.357 17.957 -0.012 -0.002 -0.001 0.000
2096 4 11.479 7.430 16.518 0.002 0.003 -0.003 -0.000
2097 4 13.142 5.039 16.507 0.002 -0.011 -0.001 0.000
2098 4 13.329 6.629 18.451 0.004 0.007 0.000 -0.000
2099 4 15.154 5.118 18.135 0.001 -0.005 0.004 0.000
2100 4 15.117 6.898 16.397 -0.000 -0.003 0.005 -0.000
2123 4 -0.112 9.358 18.569 -0.004 0.007 0.005 -0.000
2124 4 -0.194 10.874 16.698 0.002 0.006 -0.001 -0.000
2125 4 1.808 9.049 16.851 -0.006 -0.003 0.000 0.000
2126 4 1.498 11.057 18.621 0.000 -0.004 0.004 -0.000
2127 4 3.586 9.050 18.621 0.001 0.009 -0.003 -0.000
2128 4 3.671 11.007 16.605 0.009 0.004 -0.005 0.000
2129 4 5.413 9.149 16.876 -0.008 0.003 0.010 0.000
2130 4 5.167 11.211 18.846 0.001 -0.002 0.006 -0.000
2131 4 7.393 9.112 18.451 0.010 -0.005 -0.008 0.000
2132 4 7.118 10.977 16.850 0.000 0.002 0.007 -0.000
2133 4 9.197 9.003 16.368 0.004 0.006 0.004 -0.000
2134 4 9.201 10.722 18.314 -0.001 -0.005 -0.006 0.000
2135 4 11.261 8.860 18.658 -0.004 -0.004 0.001 -0.000
2136 4 11.328 11.171 17.046 -0.001 -0.006 -0.002 -0.000
2137 4 13.234 8.910 16.886 0.004 -0.004 0.005 0.000
2138 4 13.078 10.784 18.593 0.005 -0.001 -0.001 -0.000
2139 4 14.902 8.822 18.537 0.003 0.000 -0.007 0.000
2140 4 15.110 10.923 16.637 0.006 -0.011 -0.005 -0.000
2163 4 -0.335 12.880 18.543 0.008 0.003 -0.005 -0.000
2164 4 -0.209 14.634 16.642 -0.003 0.007 0.005 -0.000
2165 4 1.541 12.659 16.620 0.006 -0.002 -0.008 0.000
2166 4 1.513 14.551 18.433 0.006 0.005 0.004 -0.000
2167 4 3.314 12.871 18.579 -0.000 0.001 -0.009 -0.000
2168 4 3.109 14.707 16.603 0.005 0.002 0.007 -0.000
2169 4 5.062 13.100 16.788 -0.009 0.003 -0.010 0.000
2170 4 5.356 14.564 18.564 0.003 -0.004 0.000 -0.000
2171 4 7.428 12.691 18.426 0.003 -0.003 0.004 0.000
2172 4 7.053 14.830 16.534 0.003 0.001 -0.005 -0.000
2173 4 9.037 12.705 16.530 0.004 0.008 -0.008 0.000
2174 4 9.067 14.713 18.149 -0.002 -0.009 -0.004 0.000
2175 4 10.904 12.855 18.489 -0.005 0.002 -0.005 -0.000
2176 4 10.887 14.712 16.532 -0.008 -0.011 0.004 -0.000
2177 4 12.971 12.878 16.911 -0.011 -0.003 0.003 0.000
2178 4 12.783 14.860 18.651 0.014 0.005 0.010 -0.000
2179 4 15.034 13.199 18.577 0.002 0.004 -0.004 -0.000
2180 4 14.744 14.980 16.614 0.002 0.001 -0.003 -0.000
2404 4 -0.116 -0.116 20.543 -0.001 -0.003 -0.002 0.000
2406 4 1.732 -0.160 22.359 0.003 0.008 0.001 -0.000
2408 4 3.347 0.039 20.398 -0.001 0.003 0.000 0.000
2410 4 5.186 0.057 22.015 -0.003 -0.002 -0.003 -0.000
2412 4 7.139 0.054 20.376 0.005 -0.007 -0.004 0.000
2416 4 10.647 -0.417 20.363 0.012 -0.010 -0.003 0.000
2418 4 12.767 -0.229 22.059 -0.002 0.011 0.004 0.000
2420 4 14.750 -0.175 20.039 0.007 0.004 -0.002 -0.000
2443 4 -0.091 1.831 21.908 0.001 -0.003 0.011 0.000
2444 4 -0.179 3.624 20.438 -0.002 -0.001 0.006 0.000
2445 4 1.604 1.831 20.363 -0.005 -0.003 0.004 -0.000
2446 4 1.771 3.728 22.159 -0.005 0.001 0.003 0.000
2447 4 3.621 1.918 22.274 -0.003 0.007 0.005 -0.000
2448 4 3.542 3.679 20.460 -0.005 0.006 -0.014 0.000
2449 4 5.356 1.745 20.329 0.002 -0.007 -0.004 -0.000
2450 4 5.427 3.617 22.159 -0.002 -0.009 -0.001 0.000
2451 4 7.078 1.750 22.329 -0.008 -0.003 0.000 -0.000
2452 4 7.684 3.717 20.484 -0.003 -0.001 -0.009 0.000
2453 4 9.148 1.664 20.462 0.007 0.000 0.001 -0.000
2454 4 9.326 3.489 22.642 -0.007 -0.006 -0.006 0.000
2455 4 10.987 1.906 22.534 -0.002 -0.007 0.009 -0.000
2456 4 11.043 3.081 20.466 -0.004 -0.005 -0.005 0.000
2457 4 12.869 1.600 20.285 0.004 0.000 -0.007 -0.000
2458 4 12.917 3.615 22.283 -0.005 -0.012 0.003 0.000
2459 4 14.734 1.514 22.171 -0.002 0.003 -0.000 0.000
2460 4 14.571 3.492 20.601 0.003 0.008 0.002 0.000
2483 4 -0.143 5.424 22.349 -0.006 -0.000 0.007 0.000
2484 4 -0.185 7.301 20.368 0.002 -0.004 0.003 0.000
2485 4 1.530 5.340 20.298 -0.002 -0.006 -0.008 -0.000
2486 4 1.815 7.069 21.886 -0.006 -0.005 -0.000 -0.000
2487 4 3.833 5.775 21.807 0.004 -0.005 -0.004 -0.000
2488 4 3.513 7.473 20.161 0.000 0.003 0.003 0.000
2489 4 5.754 5.490 20.236 -0.006 0.001 0.012 -0.000
2490 4 5.593 7.229 21.944 0.002 -0.004 -0.001 0.000
2491 4 7.310 5.518 22.594 -0.003 -0.007 -0.001 0.000
2492 4 7.654 7.261 20.169 0.006 0.008 -0.003 -0.000
2493 4 9.291 5.331 20.147 -0.003 -0.001 0.001 -0.000
2494 4 9.530 7.274 22.396 0.008 -0.003 -0.002 0.000
2495 4 10.793 5.008 22.218 0.002 0.003 0.005 0.000
2496 4 11.440 7.195 20.139 0.003 0.005 0.009 0.000
2497 4 12.738 5.297 20.439 0.006 0.006 -0.006 -0.000
2498 4 12.855 7.016 22.183 0.006 0.002 0.003 -0.000
2499 4 14.814 5.343 22.322 -0.003 0.007 0.002 0.000
2500 4 14.381 7.160 20.414 -0.002 0.000 0.001 0.000
2523 4 -0.333 9.177 22.070 0.003 0.004 0.001 0.000
2524 4 -0.539 11.252 20.526 -0.004 -0.003 -0.003 0.000
2525 4 1.634 8.984 20.453 0.002 0.008 0.009 -0.000
2526 4 1.447 11.045 21.914 -0.002 -0.001 0.002 -0.000
2527 4 3.573 9.086 21.941 0.000 0.004 -0.004 -0.000
2528 4 3.392 11.034 20.547 -0.001 -0.008 0.001 0.000
2529 4 5.836 8.976 20.305 -0.005 0.011 0.005 -0.000
2530 4 5.565 10.984 22.215 -0.007 -0.008 0.004 -0.000
2531 4 7.545 8.971 21.922 -0.006 -0.010 -0.011 0.000
2532 4 7.424 10.902 20.345 0.002 0.002 0.001 -0.000
2533 4 9.379 9.238 20.405 -0.000 -0.004 -0.004 -0.000
2534 4 9.451 11.056 22.127 -0.002 0.006 0.009 0.000
2535 4 11.081 8.971 22.490 0.017 0.005 0.007 0.000
2536 4 11.089 11.160 19.949 -0.003 0.005 0.005 0.000
2537 4 13.060 9.268 20.495 -0.002 0.003 -0.004 -0.000
2538 4 12.770 11.018 22.235 -0.001 0.004 0.005 0.000
2539 4 14.780 9.274 22.514 -0.008 -0.003 -0.000 0.000
2540 4 15.083 10.998 20.225 0.002 0.002 0.006 0.000
2563 4 -0.378 13.289 22.303 0.002 -0.004 0.001 -0.000
2564 4 -0.203 14.706 20.485 -0.000 0.008 0.002 0.000
2565 4 1.546 13.207 20.368 -0.003 0.006 -0.004 0.000
2566 4 1.660 14.889 22.425 -0.007 0.003 0.002 0.000
2567 4 3.598 12.983 22.031 -0.004 -0.001 0.011 -0.000
2568 4 3.306 14.865 20.487 -0.007 0.004 0.009 0.000
2569 4 5.534 12.867 20.428 -0.005 0.007 -0.006 0.000
2570 4 5.338 14.570 22.309 0.000 0.005 0.004 0.000
2571 4 7.297 12.690 22.103 0.004 0.005 -0.002 -0.000
2572 4 7.192 14.884 20.352 0.002 -0.001 0.004 0.000
2573 4 8.991 12.877 20.483 0.006 0.001 -0.007 -0.000
2574 4 9.221 14.669 22.375 -0.005 -0.011 0.002 0.000
2575 4 10.914 13.142 22.023 -0.006 -0.006 0.009 -0.000
2576 4 10.866 14.531 20.045 -0.004 0.003 -0.005 0.000
2577 4 12.913 13.003 20.173 -0.006 0.003 0.006 0.000
2578 4 12.679 14.698 22.244 0.004 0.010 -0.002 0.000
2579 4 14.678 13.354 22.538 -0.002 0.001 -0.003 -0.000
2580 4 14.554 14.898 20.518 -0.010 0.003 0.007 -0.000
942 4 16.373 10.718 7.489 0.006 -0.003 -0.000 0.000
1411 4 7.265 16.471 11.275 -0.000 0.007 0.002 0.000
441 4 -1.941 1.747 1.840 -0.004 0.002 0.003 -0.000
1803 4 -0.357 16.561 14.751 0.004 -0.001 0.001 0.000
1381 4 16.507 12.529 8.903 0.009 -0.000 -0.006 -0.000
1809 4 5.384 16.591 13.052 0.000 0.006 -0.002 -0.000
411 4 7.211 -2.003 3.559 0.000 -0.005 -0.004 0.000
16 4 10.970 -0.113 -1.851 -0.001 -0.001 -0.004 0.000
2207 4 3.141 16.536 18.634 0.001 0.004 0.009 0.000
207 4 3.690 16.542 -0.315 0.001 0.001 -0.008 -0.000
2619 4 14.662 16.397 22.100 -0.006 0.003 -0.003 0.000
2102 4 16.543 7.271 18.563 -0.001 -0.000 -0.002 -0.000
1722 4 -1.988 10.545 14.788 0.002 0.001 0.002 0.000
2161 4 -1.952 12.956 16.571 -0.002 0.008 -0.012 0.000
482 4 -1.754 7.485 3.688 -0.004 -0.001 -0.000 -0.000
809 4 5.586 -1.916 5.609 -0.002 0.002 0.002 -0.000
15 4 10.870 -1.874 -0.029 0.003 0.000 -0.002 0.000
17 4 13.238 -1.847 -1.932 -0.006 -0.006 -0.001 0.000
2581 4 16.648 13.282 20.552 0.006 -0.003 -0.002 0.000
2582 4 16.464 15.126 22.355 0.002 0.001 -0.005 -0.000
1762 4 -2.044 14.587 14.740 -0.005 0.007 0.005 -0.000
2603 4 -0.210 16.331 22.541 0.008 -0.008 0.006 0.000
1813 4 9.208 16.512 12.989 0.006 0.004 -0.010 -0.000
2411 4 7.385 -1.924 22.053 0.003 -0.001 -0.002 -0.000
961 4 -1.992 12.614 5.438 0.000 0.005 -0.010 -0.000
521 4 -1.892 8.923 1.639 -0.000 -0.006 -0.006 -0.000
1721 4 -2.006 8.964 12.847 -0.004 -0.001 -0.002 -0.000
2162 4 -1.918 14.997 18.548 -0.002 0.000 0.006 -0.000
1602 4 -1.934 -0.220 14.853 -0.001 -0.004 0.001 -0.000
1019 4 14.920 16.471 7.078 0.006 0.004 0.006 0.000
605 4 1.801 16.493 1.775 0.002 -0.002 0.009 0.000
1003 4 -0.246 16.614 6.854 0.006 0.002 -0.006 0.000
407 4 3.891 -1.867 3.628 -0.003 0.002 -0.000 0.000
128 4 3.404 11.089 -1.968 0.003 0.005 -0.008 0.000
1681 4 -1.780 5.620 13.203 0.004 0.008 -0.000 -0.000
609 4 5.398 16.603 1.565 0.003 0.007 -0.008 -0.000
1007 4 3.757 16.311 7.178 0.005 -0.004 -0.006 0.000
2209 4 5.290 16.242 16.533 0.008 0.004 -0.000 0.000
219 4 14.621 16.475 0.033 -0.007 0.005 -0.003 0.000
1405 4 1.581 16.553 8.796 -0.001 0.003 0.011 -0.000
1605 4 1.340 -1.920 12.974 0.003 0.000 0.007 -0.000
102 4 16.528 7.135 -0.413 0.002 0.005 0.004 -0.000
2422 4 16.412 -0.147 22.303 -0.008 0.014 -0.003 -0.000
1341 4 16.423 9.098 8.894 0.010 -0.003 -0.003 -0.000
2061 4 16.590 1.464 16.413 0.003 0.008 0.010 0.000
2542 4 16.369 11.413 22.135 0.006 -0.011 0.006 -0.000
882 4 -2.011 7.238 6.898 -0.004 0.008 -0.000 -0.000