ITEM: TIMESTEP
6000
ITEM: NUMBER OF ATOMS
32000
ITEM: BOX BOUNDS pp pp pp
-2.954979 73.434979
-3.032670 73.512670
-3.041200 73.521200
ITEM: ATOMS id type x y z vx vy vz q
6 4 1.104 -0.876 -1.397 0.004 -0.009 -0.007 -0.000
10 4 5.005 -1.160 -1.220 0.016 0.003 -0.005 -0.000
14 4 8.584 -1.102 -1.430 -0.003 0.008 0.004 -0.000
18 4 11.950 -1.105 -1.133 0.001 -0.006 0.005 -0.000
43 4 -0.927 1.164 -1.450 -0.003 -0.001 -0.001 -0.000
46 4 0.669 3.040 -1.273 0.001 0.001 -0.003 0.000
47 4 2.533 0.797 -1.387 -0.000 -0.005 0.004 0.000
50 4 4.723 2.743 -1.308 -0.000 -0.003 -0.010 0.000
51 4 6.558 0.805 -1.345 -0.004 0.001 0.003 0.000
54 4 8.982 2.690 -1.532 -0.007 0.003 0.005 0.000
55 4 10.756 1.018 -0.949 0.004 0.006 -0.003 0.000
58 4 12.491 2.840 -1.360 -0.003 -0.000 0.001 0.000
59 4 13.922 0.437 -1.124 0.006 0.009 -0.001 0.000
83 4 -0.916 4.814 -0.980 0.007 -0.015 -0.005 0.000
86 4 1.319 6.428 -1.234 -0.008 0.002 0.010 0.000
87 4 2.710 4.591 -1.191 0.003 0.005 0.000 -0.000
90 4 4.443 6.543 -1.182 0.008 0.006 0.006 0.000
91 4 6.721 4.730 -1.498 0.022 0.005 -0.005 0.000
94 4 8.571 6.343 -1.421 -0.001 0.002 -0.007 0.000
95 4 10.227 4.801 -1.087 0.003 0.002 0.001 0.000
98 4 12.415 6.340 -1.186 -0.004 -0.004 -0.002 0.000
99 4 14.987 4.388 -1.581 -0.013 0.002 -0.007 0.000
123 4 -1.036 8.151 -1.306 -0.002 0.008 -0.011 0.000
126 4 0.984 10.145 -0.697 0.004 -0.002 -0.002 -0.000
127 4 2.875 8.570 -0.998 -0.010 -0.008 0.004 0.000
130 4 4.556 10.712 -1.373 -0.005 -0.003 0.004 -0.000
131 4 6.775 8.368 -1.530 -0.005 -0.004 -0.008 -0.000
134 4 8.825 10.192 -0.928 -0.004 0.006 -0.001 0.000
135 4 10.529 8.794 -1.286 -0.002 -0.001 0.015 -0.000
138 4 12.449 10.055 -1.501 -0.004 -0.011 -0.009 0.000
139 4 14.183 8.424 -1.088 -0.001 0.004 -0.006 -0.000
163 4 -1.010 12.104 -0.938 0.005 0.002 -0.003 0.000
166 4 0.736 13.896 -1.230 0.012 0.007 0.002 0.000
167 4 2.745 12.092 -1.164 0.002 -0.013 0.009 0.000
170 4 4.821 14.190 -1.410 -0.007 0.000 0.007 0.000
171 4 6.524 12.257 -1.139 0.004 0.001 -0.002 0.000
174 4 8.482 14.282 -0.888 0.010 0.005 -0.002 0.000
175 4 10.591 12.009 -1.282 -0.005 -0.009 0.000 0.000
178 4 11.877 13.961 -1.183 -0.001 -0.004 -0.004 0.000
179 4 14.267 12.050 -1.153 0.001 -0.006 -0.001 -0.000
404 4 -0.578 -0.619 0.196 0.011 0.006 0.003 0.000
406 4 1.273 -1.199 2.471 0.001 -0.001 0.004 -0.000
408 4 3.198 -1.138 0.342 -0.004 0.011 -0.004 0.000
410 4 4.835 -0.990 2.471 -0.004 -0.008 -0.006 -0.000
412 4 7.187 -1.064 0.876 0.007 0.007 -0.001 0.000
414 4 9.163 -1.028 2.619 0.005 -0.008 0.002 -0.000
416 4 10.600 -0.949 0.864 0.005 -0.007 0.002 0.000
418 4 12.129 -0.644 2.704 -0.002 -0.012 0.010 -0.000
420 4 14.266 -1.032 1.109 -0.002 0.000 -0.008 0.000
443 4 -0.890 0.639 2.388 -0.000 -0.011 -0.001 0.000
444 4 -0.886 2.555 0.814 -0.006 -0.014 -0.003 -0.000
445 4 1.370 1.107 0.906 0.003 -0.003 0.002 0.000
446 4 0.699 2.869 2.892 0.003 -0.001 -0.001 -0.000
447 4 2.967 0.965 2.844 0.006 -0.005 0.006 0.000
448 4 3.361 2.352 0.412 0.006 0.005 -0.011 -0.000
449 4 5.002 0.747 0.598 -0.005 0.012 -0.011 -0.000
450 4 4.954 2.731 2.649 -0.004 0.004 -0.001 -0.000
451 4 6.701 0.951 2.720 0.008 -0.007 -0.002 0.000
452 4 6.672 3.018 0.507 -0.007 -0.006 -0.005 -0.000
453 4 8.910 0.856 0.472 -0.004 -0.003 -0.003 -0.000
454 4 8.617 2.628 2.368 -0.004 0.006 0.007 0.000
455 4 10.409 1.290 2.981 -0.009 -0.007 -0.001 0.000
456 4 10.687 2.725 0.665 -0.004 -0.003 0.002 -0.000
457 4 12.298 1.167 1.048 -0.002 0.001 0.010 -0.000
458 4 12.553 2.833 2.793 0.004 0.006 -0.001 0.000
459 4 14.392 0.781 2.707 -0.014 -0.006 0.005 -0.000
460 4 14.208 2.282 0.263 0.001 0.002 0.012 -0.000
483 4 -1.162 4.730 2.572 0.008 -0.012 -0.008 0.000
484 4 -0.622 6.563 0.869 0.000 -0.008 0.008 -0.000
485 4 1.171 4.806 0.575 0.002 -0.002 -0.003 0.000
486 4 1.252 5.998 3.022 0.003 0.007 -0.001 -0.000
487 4 2.954 4.318 2.088 -0.006 -0.013 -0.015 -0.000
488 4 2.739 6.923 0.744 -0.009 0.004 -0.007 -0.000
489 4 4.627 4.720 0.668 -0.003 -0.013 0.002 0.000
490 4 4.885 6.214 2.577 -0.001 -0.002 0.003 -0.000
491 4 6.659 4.449 2.597 0.006 -0.003 -0.003 0.000
492 4 6.653 6.032 0.403 -0.007 0.003 -0.003 -0.000
493 4 8.477 4.886 0.655 -0.008 -0.005 0.004 -0.000
494 4 8.544 6.307 2.787 -0.003 0.010 -0.004 -0.000
495 4 10.630 4.442 2.855 -0.001 0.013 -0.003 -0.000
496 4 10.713 6.670 0.469 -0.003 -0.002 -0.006 -0.000
497 4 12.632 4.489 0.593 0.000 -0.002 -0.003 -0.000
498 4 12.635 6.710 2.435 0.000 0.011 0.001 -0.000
499 4 14.566 4.707 2.804 -0.005 0.004 -0.002 -0.000
500 4 14.354 6.479 0.497 -0.005 0.002 0.013 0.000
523 4 -0.803 8.248 2.844 0.005 0.000 0.000 0.000
524 4 -1.351 10.411 0.770 0.009 -0.009 0.008 -0.000
525 4 0.743 8.686 0.851 -0.011 0.004 0.001 0.000
526 4 1.266 10.490 2.518 -0.003 0.006 -0.001 -0.000
527 4 2.932 8.358 2.786 0.007 0.003 -0.006 0.000
528 4 3.009 10.099 0.969 0.002 -0.000 -0.003 0.000
529 4 5.037 8.546 0.620 -0.007 -0.002 0.003 0.000
530 4 4.993 10.121 2.594 -0.006 0.004 -0.006 -0.000
531 4 6.784 8.136 2.682 -0.008 0.004 -0.001 0.000
532 4 6.733 10.335 0.773 0.006 0.002 -0.000 -0.000
533 4 8.175 8.000 0.396 -0.003 0.001 -0.002 -0.000
534 4 8.768 10.828 2.535 0.006 -0.006 0.009 0.000
535 4 9.657 8.381 2.410 0.009 0.006 -0.004 -0.000
536 4 10.655 10.184 0.704 -0.002 0.003 0.013 -0.000
537 4 12.515 8.276 0.637 -0.003 0.000 0.005 0.000
538 4 12.283 10.234 2.221 -0.004 0.002 -0.003 0.000
539 4 14.201 8.324 2.354 0.004 -0.002 0.002 -0.000
540 4 14.186 10.318 0.666 0.003 0.005 -0.001 0.000
563 4 -0.717 12.132 2.612 0.006 0.002 -0.005 0.000
564 4 -0.724 14.032 0.777 0.006 0.002 0.003 -0.000
565 4 1.020 12.413 0.925 -0.007 0.006 0.006 0.000
566 4 0.937 14.406 2.861 -0.007 -0.002 -0.003 0.000
567 4 3.043 12.377 2.744 0.002 -0.005 0.002 -0.000
568 4 2.880 14.246 0.866 -0.009 0.002 -0.002 -0.000
569 4 4.636 12.443 0.830 -0.005 0.002 -0.005 -0.000
570 4 4.633 14.135 2.609 0.003 0.009 -0.005 -0.000
571 4 6.693 12.378 2.547 -0.005 0.006 0.005 -0.000
572 4 6.231 14.139 0.588 0.002 -0.005 -0.003 -0.000
573 4 8.834 12.133 0.438 0.014 -0.004 -0.001 -0.000
574 4 8.630 13.797 2.386 -0.007 0.006 -0.003 0.000
575 4 10.875 12.250 2.188 0.000 0.004 -0.004 0.000
576 4 10.227 14.379 0.544 -0.014 -0.003 0.000 -0.000
577 4 12.456 11.952 0.403 -0.005 0.001 -0.002 -0.000
578 4 12.026 14.133 2.417 -0.002 -0.002 0.003 0.000
579 4 13.325 12.191 2.703 0.006 0.011 -0.009 -0.000
580 4 14.056 13.862 0.614 -0.003 -0.002 0.009 0.000
804 4 -0.797 -1.061 4.186 0.011 -0.005 0.004 0.000
806 4 0.947 -2.327 6.068 -0.009 0.002 0.010 -0.000
808 4 3.236 -1.438 4.425 0.004 0.001 -0.003 -0.000
810 4 4.861 -1.167 6.373 0.002 0.010 -0.004 0.000
812 4 6.883 -1.338 4.360 0.003 0.005 0.002 -0.000
814 4 8.504 -1.255 6.494 -0.004 0.004 -0.001 0.000
816 4 10.753 -0.838 4.820 0.005 0.003 -0.005 0.000
818 4 12.082 -1.162 7.195 -0.004 0.004 0.005 -0.000
820 4 14.133 -0.845 4.706 0.003 -0.001 -0.003 0.000
843 4 -0.924 0.521 6.283 -0.002 -0.005 0.008 0.000
844 4 -1.183 2.533 4.719 -0.001 -0.001 -0.003 0.000
845 4 1.123 0.784 4.329 0.003 -0.002 -0.009 0.000
846 4 1.117 2.319 6.288 0.001 0.013 0.002 0.000
847 4 2.912 0.594 6.573 0.005 0.000 -0.002 -0.000
848 4 2.693 3.126 4.323 0.006 -0.014 -0.007 -0.000
849 4 4.970 0.942 4.608 -0.001 -0.001 0.009 -0.000
850 4 5.061 2.689 6.405 -0.003 -0.002 -0.004 0.000
851 4 6.947 0.599 6.820 -0.007 -0.002 0.003 0.000
852 4 6.945 2.626 4.687 0.001 -0.005 -0.003 -0.000
853 4 8.666 0.714 4.910 -0.003 -0.001 0.003 0.000
854 4 8.477 2.904 6.552 0.005 0.008 0.015 0.000
855 4 10.154 0.646 7.011 0.003 0.004 0.006 -0.000
856 4 10.306 2.546 5.031 0.004 0.003 0.010 0.000
857 4 12.402 1.054 4.677 0.006 0.002 0.005 -0.000
858 4 12.270 2.494 6.572 -0.011 -0.008 0.006 0.000
859 4 14.107 0.792 6.808 0.007 -0.014 0.008 -0.000
860 4 14.204 2.521 4.941 -0.005 -0.003 -0.012 0.000
883 4 -1.104 4.252 6.699 0.011 0.001 -0.001 -0.000
884 4 -0.841 6.190 4.598 -0.005 -0.004 -0.004 -0.000
885 4 0.670 4.383 4.901 0.005 -0.002 0.002 0.000
886 4 0.924 6.668 6.376 0.000 -0.000 0.000 -0.000
887 4 2.830 4.501 6.692 0.006 0.016 0.003 -0.000
888 4 3.297 6.322 4.679 -0.007 -0.001 -0.010 0.000
889 4 4.731 4.303 4.416 0.006 -0.007 -0.001 -0.000
890 4 4.956 6.227 6.867 0.007 -0.017 0.006 -0.000
891 4 6.935 4.919 6.674 -0.007 0.004 -0.010 0.000
892 4 6.411 6.414 4.625 -0.005 0.001 -0.002 0.000
893 4 8.834 4.571 4.919 -0.013 -0.006 0.003 -0.000
894 4 8.849 6.838 7.005 0.002 -0.005 -0.004 -0.000
895 4 10.433 4.871 6.775 -0.004 -0.004 0.008 0.000
896 4 10.384 6.624 4.328 -0.006 0.003 -0.001 0.000
897 4 12.288 4.127 4.607 -0.001 -0.000 -0.007 -0.000
898 4 11.955 6.749 6.672 0.006 -0.001 -0.003 -0.000
899 4 14.400 4.887 6.383 0.002 -0.005 -0.003 -0.000
900 4 13.651 6.361 4.548 -0.003 -0.011 0.006 0.000
923 4 -0.972 8.419 5.888 0.001 -0.008 0.004 0.000
924 4 -0.962 10.490 4.556 -0.006 0.002 -0.015 -0.000
925 4 1.188 8.438 4.487 -0.007 -0.006 0.001 -0.000
926 4 1.502 10.328 6.257 -0.002 0.006 0.000 0.000
927 4 2.988 8.455 6.375 -0.000 -0.007 -0.007 -0.000
928 4 3.475 10.209 4.700 -0.001 0.012 0.004 0.000
929 4 4.981 8.498 4.371 0.006 -0.005 -0.000 -0.000
930 4 4.847 9.910 6.710 -0.002 -0.002 0.001 -0.000
931 4 6.957 8.371 6.767 0.005 0.001 0.006 0.000
932 4 6.829 10.438 4.880 0.008 0.003 0.010 0.000
933 4 8.559 8.482 4.583 -0.008 -0.011 -0.013 -0.000
934 4 8.628 10.271 6.758 -0.006 0.001 0.007 -0.000
935 4 10.402 8.602 6.577 0.005 -0.004 0.002 0.000
936 4 10.585 10.315 4.331 0.004 0.006 0.008 0.000
937 4 12.297 8.340 4.653 0.007 0.001 -0.004 -0.000
938 4 12.747 10.442 6.274 -0.003 -0.000 -0.000 0.000
939 4 14.099 8.326 6.998 0.001 0.000 -0.002 -0.000
940 4 14.204 10.252 4.315 0.015 -0.004 -0.002 0.000
963 4 -1.229 12.446 6.608 -0.005 -0.002 -0.002 0.000
964 4 -0.969 14.111 4.664 -0.009 0.003 -0.002 -0.000
965 4 1.178 12.135 4.166 -0.002 0.009 -0.006 0.000
966 4 1.165 14.390 6.704 0.004 -0.000 0.003 -0.000
967 4 2.937 12.390 6.260 0.002 0.000 -0.002 -0.000
968 4 2.808 14.584 4.774 -0.004 0.009 -0.010 -0.000
969 4 4.771 12.688 4.275 -0.004 0.008 -0.006 -0.000
970 4 4.869 14.392 6.556 -0.001 -0.013 -0.004 0.000
971 4 7.145 12.653 6.601 0.002 0.001 0.002 0.000
972 4 6.862 14.160 4.324 0.001 -0.001 0.003 -0.000
973 4 9.018 12.286 4.042 -0.007 0.003 -0.000 -0.000
974 4 8.475 14.847 6.225 0.010 0.007 -0.005 0.000
975 4 10.340 12.169 6.515 0.013 0.006 -0.002 0.000
976 4 10.653 14.182 4.625 -0.013 0.006 0.003 0.000
977 4 12.299 12.138 4.863 0.008 -0.003 -0.008 -0.000
978 4 12.255 14.241 6.579 0.003 0.001 -0.007 0.000
979 4 14.220 12.658 6.496 0.003 0.001 -0.007 0.000
980 4 13.926 14.081 4.218 0.002 -0.009 0.000 0.000
1204 4 -1.006 -1.206 8.501 0.008 0.010 0.004 0.000
1206 4 0.812 -1.356 10.585 -0.004 0.006 -0.002 -0.000
1208 4 2.881 -1.244 8.452 0.008 0.001 0.006 0.000
1210 4 4.543 -0.836 10.218 0.000 0.001 -0.001 -0.000
1212 4 6.590 -1.389 8.517 -0.004 -0.004 0.011 0.000
1214 4 8.357 -0.860 11.041 0.001 0.001 0.001 -0.000
1216 4 9.846 -1.055 8.960 -0.002 -0.005 -0.007 0.000
1218 4 12.071 -1.373 10.320 0.007 -0.001 0.008 -0.000
1220 4 14.026 -0.746 8.595 0.000 -0.002 -0.003 0.000
1243 4 -1.034 0.564 10.463 0.002 0.000 0.002 -0.000
1244 4 -0.918 2.272 8.546 0.003 -0.007 -0.013 0.000
1245 4 0.753 0.253 8.013 -0.004 0.004 0.003 -0.000
1246 4 1.053 2.868 10.360 -0.009 -0.003 0.009 0.000
1247 4 2.563 0.824 10.036 -0.004 0.006 0.002 -0.000
1248 4 3.143 2.880 8.441 0.005 -0.011 -0.001 -0.000
1249 4 4.786 0.798 8.411 -0.007 -0.001 0.000 -0.000
1250 4 4.716 2.740 10.422 -0.006 0.001 0.003 0.000
1251 4 6.763 1.072 10.428 0.004 0.014 -0.003 0.000
1252 4 6.887 3.093 8.406 0.007 -0.010 0.009 -0.000
1253 4 8.775 1.305 8.681 0.006 0.001 -0.003 0.000
1254 4 8.538 2.739 10.782 -0.007 -0.002 -0.008 0.000
1255 4 10.866 1.003 10.478 0.003 -0.002 -0.006 -0.000
1256 4 10.368 3.054 8.580 0.000 0.001 -0.005 -0.000
1257 4 12.259 0.689 8.564 -0.003 -0.004 0.006 0.000
1258 4 12.026 3.447 10.708 0.004 0.003 -0.004 0.000
1259 4 14.043 0.599 10.414 0.011 -0.012 0.006 -0.000
1260 4 13.998 2.627 8.525 -0.005 0.001 0.004 -0.000
1283 4 -1.013 4.158 10.176 0.011 -0.012 0.001 -0.000
1284 4 -1.028 6.682 8.040 -0.011 0.005 -0.008 -0.000
1285 4 0.976 4.622 8.519 -0.000 -0.003 -0.007 0.000
1286 4 0.505 6.629 10.304 0.002 -0.005 0.002 -0.000
1287 4 2.731 4.723 10.203 0.003 0.006 0.009 -0.000
1288 4 2.780 6.522 8.118 -0.006 0.005 -0.003 0.000
1289 4 4.840 4.785 9.051 -0.001 0.003 0.007 0.000
1290 4 4.486 6.615 10.433 0.001 0.001 -0.002 -0.000
1291 4 6.685 4.950 10.670 0.002 0.012 -0.003 -0.000
1292 4 6.907 6.530 8.838 -0.011 -0.007 0.007 -0.000
1293 4 8.630 4.694 8.764 0.006 0.008 0.002 0.000
1294 4 8.448 6.444 10.905 0.005 -0.011 0.004 -0.000
1295 4 10.123 4.809 10.612 0.007 0.001 0.003 -0.000
1296 4 10.255 6.564 9.107 0.005 0.008 -0.000 0.000
1297 4 12.736 4.338 8.318 -0.002 -0.001 -0.008 -0.000
1298 4 12.169 6.518 10.578 -0.001 -0.003 -0.011 -0.000
1299 4 13.949 4.909 10.438 0.004 -0.002 0.003 -0.000
1300 4 13.794 6.332 8.250 -0.005 -0.004 0.007 0.000
1323 4 -0.902 8.727 9.876 0.005 -0.004 0.007 0.000
1324 4 -0.785 10.670 8.120 -0.006 0.005 0.013 -0.000
1325 4 0.995 8.740 8.212 -0.004 -0.003 -0.004 -0.000
1326 4 0.942 10.824 10.405 -0.001 -0.004 0.005 -0.000
1327 4 2.783 8.721 10.433 0.002 0.001 -0.000 0.000
1328 4 3.087 10.324 8.203 -0.001 0.008 0.002 0.000
1329 4 4.488 8.247 8.608 -0.006 -0.005 0.002 0.000
1330 4 4.495 10.534 10.090 0.007 0.000 -0.004 -0.000
1331 4 6.455 8.599 9.866 -0.016 -0.003 -0.003 -0.000
1332 4 6.751 10.668 8.345 -0.001 0.001 -0.004 0.000
1333 4 8.731 8.153 8.852 -0.005 -0.004 -0.004 0.000
1334 4 8.953 10.315 10.251 0.009 -0.000 0.006 -0.000
1335 4 10.468 8.449 10.846 0.000 0.010 0.003 -0.000
1336 4 10.681 10.209 8.250 0.005 0.002 0.006 -0.000
1337 4 12.260 8.292 8.581 -0.003 0.001 -0.003 0.000
1338 4 12.543 10.273 10.315 -0.003 -0.005 -0.005 -0.000
1339 4 14.277 8.385 9.847 0.004 -0.003 0.004 -0.000
1340 4 14.180 10.809 8.369 0.011 -0.005 -0.008 0.000
1363 4 -0.673 12.592 10.279 -0.003 -0.006 0.007 0.000
1364 4 -1.193 14.358 8.414 -0.007 -0.004 -0.011 -0.000
1365 4 1.187 12.416 8.330 0.001 0.005 0.005 -0.000
1366 4 1.177 14.428 9.788 0.005 0.010 0.008 -0.000
1367 4 2.886 12.496 10.496 0.001 0.000 0.000 -0.000
1368 4 2.895 14.367 8.066 0.000 0.001 -0.002 0.000
1369 4 4.541 12.429 8.147 -0.000 0.007 -0.005 -0.000
1370 4 4.830 14.306 10.368 0.000 -0.011 -0.008 -0.000
1371 4 6.548 12.361 10.178 -0.001 -0.007 0.008 0.000
1372 4 6.740 14.501 8.199 -0.004 0.005 -0.002 0.000
1373 4 8.569 12.158 8.655 -0.001 0.005 0.008 -0.000
1374 4 8.709 14.710 10.137 -0.005 -0.008 -0.001 -0.000
1375 4 10.386 12.188 10.214 -0.008 0.000 0.003 0.000
1376 4 10.528 14.581 8.004 -0.000 -0.005 -0.005 -0.000
1377 4 12.245 12.306 8.410 -0.006 0.002 0.004 -0.000
1378 4 12.196 14.654 10.015 -0.006 -0.019 -0.001 -0.000
1379 4 13.705 12.552 10.339 0.004 -0.000 0.011 0.000
1380 4 14.338 14.323 8.393 -0.006 -0.008 0.012 -0.000
1604 4 -1.429 -1.366 11.867 -0.001 -0.010 -0.005 0.000
1606 4 0.819 -0.966 13.873 0.001 0.000 -0.005 -0.000
1608 4 2.746 -1.625 12.272 0.008 -0.005 0.003 -0.000
1610 4 4.797 -0.907 14.328 0.001 0.000 0.007 -0.000
1612 4 6.954 -0.939 12.837 -0.000 0.001 -0.013 0.000
1614 4 8.494 -0.862 14.425 -0.006 -0.005 -0.003 -0.000
1616 4 10.429 -1.178 12.486 0.003 0.001 0.009 0.000
1618 4 12.492 -1.271 14.232 -0.005 -0.014 0.003 -0.000
1620 4 14.182 -1.290 12.137 -0.011 -0.003 0.007 0.000
1643 4 -1.341 0.463 13.999 0.009 0.009 0.006 -0.000
1644 4 -1.393 2.428 12.024 -0.007 -0.005 0.006 -0.000
1645 4 0.859 0.715 12.022 -0.002 0.000 0.009 0.000
1646 4 0.846 2.470 13.592 0.000 -0.003 -0.015 -0.000
1647 4 2.946 0.792 13.977 -0.004 0.004 -0.000 0.000
1648 4 2.771 2.521 12.091 -0.005 0.001 0.001 -0.000
1649 4 4.880 0.476 12.196 -0.004 -0.004 -0.012 0.000
1650 4 4.662 2.369 14.065 -0.010 0.003 -0.018 0.000
1651 4 6.524 1.077 14.175 0.004 -0.002 0.001 -0.000
1652 4 6.613 2.594 12.143 -0.008 0.000 -0.001 -0.000
1653 4 8.960 1.211 12.682 0.007 0.009 -0.007 0.000
1654 4 8.745 2.976 14.327 -0.001 0.001 -0.007 -0.000
1655 4 10.622 1.043 14.475 -0.002 0.004 0.005 0.000
1656 4 10.835 3.222 12.531 0.001 -0.018 0.002 -0.000
1657 4 12.770 1.242 12.297 -0.010 -0.003 -0.006 0.000
1658 4 12.633 2.744 14.243 0.005 0.002 0.004 0.000
1659 4 14.518 0.814 14.185 0.008 0.006 0.005 -0.000
1660 4 14.072 3.283 12.451 0.006 -0.005 -0.001 -0.000
1683 4 -0.923 4.719 14.122 -0.001 -0.008 -0.002 0.000
1684 4 -1.152 6.607 12.370 0.006 0.007 -0.000 -0.000
1685 4 0.602 4.797 12.064 0.002 0.000 0.001 0.000
1686 4 0.778 6.425 14.246 -0.007 -0.002 0.004 -0.000
1687 4 2.691 4.518 14.099 -0.003 -0.004 -0.001 -0.000
1688 4 2.705 6.622 12.094 -0.006 -0.001 -0.004 0.000
1689 4 4.646 4.557 12.122 0.003 0.004 -0.004 0.000
1690 4 4.610 6.539 14.138 -0.002 0.006 0.005 -0.000
1691 4 6.340 4.681 13.724 -0.011 -0.004 0.006 -0.000
1692 4 6.274 6.968 12.383 -0.000 0.005 -0.012 0.000
1693 4 8.527 4.422 12.507 -0.014 0.000 0.002 0.000
1694 4 8.516 6.360 14.208 -0.005 0.007 0.004 -0.000
1695 4 10.351 4.538 14.368 -0.009 -0.005 -0.001 0.000
1696 4 10.273 6.302 12.550 0.008 -0.005 0.003 0.000
1697 4 12.448 5.098 12.778 0.007 0.003 -0.000 0.000
1698 4 12.192 6.507 14.531 0.009 0.010 -0.005 -0.000
1699 4 14.425 4.709 14.426 -0.004 0.001 -0.002 -0.000
1700 4 14.294 7.021 12.461 -0.003 0.003 0.005 0.000
1723 4 -0.536 8.623 14.288 -0.008 -0.004 -0.009 0.000
1724 4 -0.924 10.725 12.238 0.001 0.003 0.001 -0.000
1725 4 0.810 8.561 12.208 -0.004 -0.006 0.000 -0.000
1726 4 0.934 10.567 14.097 0.001 -0.007 0.012 -0.000
1727 4 2.692 8.551 14.232 0.004 -0.003 -0.004 0.000
1728 4 2.744 10.567 12.235 0.009 -0.007 0.006 0.000
1729 4 4.758 8.604 12.036 0.006 -0.000 -0.002 -0.000
1730 4 4.634 10.462 14.041 -0.006 -0.002 0.000 0.000
1731 4 6.379 8.726 13.986 -0.005 -0.000 0.007 -0.000
1732 4 6.806 10.254 12.136 0.002 -0.000 0.002 0.000
1733 4 8.406 8.149 12.814 -0.006 -0.007 -0.001 0.000
1734 4 8.121 10.325 14.259 -0.006 -0.014 0.003 0.000
1735 4 10.370 8.511 14.739 0.003 0.004 0.000 0.000
1736 4 10.012 10.204 12.667 -0.001 0.004 -0.016 -0.000
1737 4 12.200 8.579 12.822 0.009 0.003 -0.007 0.000
1738 4 12.161 10.719 14.473 0.001 -0.003 -0.004 -0.000
1739 4 14.480 8.539 14.435 0.012 -0.007 -0.003 -0.000
1740 4 13.901 10.438 12.463 -0.001 0.001 -0.008 0.000
1763 4 -0.834 12.581 14.036 0.008 0.007 -0.001 0.000
1764 4 -0.789 14.329 12.521 -0.003 0.000 0.003 -0.000
1765 4 1.027 12.660 12.175 -0.000 -0.015 -0.003 -0.000
1766 4 0.769 14.138 14.714 0.002 -0.004 0.004 -0.000
1767 4 3.082 12.012 14.618 0.001 0.000 -0.000 -0.000
1768 4 3.143 14.331 12.252 0.006 0.002 0.001 0.000
1769 4 4.742 12.306 12.153 -0.005 -0.005 0.004 0.000
1770 4 4.842 13.998 14.138 -0.013 -0.006 -0.002 0.000
1771 4 6.687 12.115 14.286 0.007 -0.000 -0.006 -0.000
1772 4 7.042 14.302 11.925 0.003 -0.001 -0.001 0.000
1773 4 8.736 12.282 12.190 0.001 0.001 0.009 -0.000
1774 4 8.118 14.319 14.173 0.004 -0.009 -0.012 0.000
1775 4 10.149 12.711 14.045 -0.002 -0.003 0.000 -0.000
1776 4 10.462 14.436 12.021 -0.002 -0.001 -0.001 -0.000
1777 4 11.934 12.352 12.532 0.005 0.010 0.005 -0.000
1778 4 12.052 14.620 14.078 0.001 0.009 0.008 0.000
1779 4 14.132 12.332 14.433 0.013 0.006 0.005 -0.000
1780 4 13.935 14.012 12.213 0.005 0.005 -0.001 0.000
2004 4 -1.067 -0.797 15.921 -0.009 -0.004 0.004 -0.000
2006 4 0.993 -1.313 18.117 -0.007 0.006 -0.006 -0.000
2008 4 2.503 -1.019 15.995 0.004 -0.006 -0.002 -0.000
2010 4 4.107 -1.379 17.959 -0.000 0.003 -0.008 -0.000
2012 4 6.487 -0.723 16.223 0.003 0.014 0.005 0.000
2014 4 8.364 -1.154 17.838 0.007 0.004 0.007 0.000
2016 4 10.234 -0.750 16.205 0.001 0.005 0.000 -0.000
2018 4 12.436 -0.879 17.937 -0.003 0.000 0.008 0.000
2020 4 14.224 -1.249 16.208 0.001 -0.001 0.002 0.000
2043 4 -1.042 0.851 18.013 0.004 0.006 -0.012 -0.000
2044 4 -0.948 2.646 16.201 -0.003 0.002 0.003 0.000
2045 4 0.776 0.733 15.936 -0.001 0.007 -0.007 0.000
2046 4 0.924 2.545 17.998 0.004 -0.003 -0.007 0.000
2047 4 2.908 0.757 17.857 0.001 0.001 0.002 0.000
2048 4 2.520 2.583 16.111 0.002 -0.005 -0.007 -0.000
2049 4 4.685 0.935 15.996 -0.003 -0.007 -0.001 0.000
2050 4 4.689 2.599 17.734 -0.002 0.007 0.008 0.000
2051 4 6.540 0.736 18.030 -0.004 -0.009 -0.002 -0.000
2052 4 6.534 2.925 15.736 0.012 0.005 0.001 0.000
2053 4 8.210 0.969 16.209 0.007 0.003 -0.001 0.000
2054 4 8.152 2.925 17.727 -0.005 -0.003 0.000 0.000
2055 4 9.800 1.071 18.320 0.004 0.001 0.006 -0.000
2056 4 10.164 2.681 16.278 -0.000 -0.009 -0.000 -0.000
2057 4 12.550 0.598 15.856 0.003 -0.001 0.014 -0.000
2058 4 12.390 2.618 17.976 -0.001 0.000 0.010 0.000
2059 4 14.520 0.921 17.836 0.010 -0.005 0.000 -0.000
2060 4 14.438 2.613 16.300 -0.012 0.005 0.005 0.000
2083 4 -0.793 4.449 18.152 -0.001 0.004 -0.010 -0.000
2084 4 -0.806 6.376 16.364 -0.003 -0.006 0.007 -0.000
2085 4 0.837 4.458 16.155 0.004 -0.005 -0.002 0.000
2086 4 0.858 6.516 17.991 -0.015 -0.008 0.003 0.000
2087 4 2.888 4.698 18.024 -0.003 0.005 0.001 -0.000
2088 4 2.892 6.299 15.975 -0.008 0.008 -0.005 0.000
2089 4 4.697 4.547 15.783 -0.002 0.002 -0.003 -0.000
2090 4 5.031 6.908 17.773 -0.002 0.017 0.014 -0.000
2091 4 6.506 4.553 17.907 -0.005 -0.002 -0.002 -0.000
2092 4 6.334 6.422 15.821 -0.006 0.002 0.004 0.000
2093 4 8.182 4.673 16.115 -0.017 -0.001 -0.000 -0.000
2094 4 8.358 6.736 17.969 0.002 0.001 -0.001 0.000
2095 4 10.278 4.562 17.945 -0.004 -0.010 -0.004 -0.000
2096 4 10.253 6.547 16.184 -0.002 -0.003 -0.005 0.000
2097 4 12.258 4.342 16.174 -0.008 -0.015 -0.008 -0.000
2098 4 12.288 6.136 17.709 -0.002 0.000 0.004 -0.000
2099 4 14.437 4.445 17.895 0.001 0.004 -0.003 -0.000
2100 4 14.154 6.721 15.899 0.004 0.001 -0.002 0.000
2123 4 -0.790 8.507 17.877 0.011 -0.003 -0.000 0.000
2124 4 -0.781 10.575 16.160 0.002 0.003 0.007 -0.000
2125 4 0.978 8.385 16.026 -0.001 -0.003 -0.005 -0.000
2126 4 1.297 10.207 18.268 0.008 0.004 0.004 0.000
2127 4 2.680 8.173 17.883 -0.011 0.002 0.002 -0.000
2128 4 3.167 10.339 16.392 0.013 -0.005 -0.001 -0.000
2129 4 4.641 8.616 15.870 -0.002 -0.002 -0.004 -0.000
2130 4 5.002 10.451 18.241 -0.005 0.009 -0.003 0.000
2131 4 6.898 8.437 18.286 -0.006 -0.001 -0.005 -0.000
2132 4 6.545 10.375 16.543 -0.003 -0.006 0.003 -0.000
2133 4 8.146 8.415 15.979 -0.014 -0.001 -0.014 -0.000
2134 4 8.604 10.207 18.303 -0.001 -0.005 -0.003 0.000
2135 4 10.304 8.345 17.894 0.001 0.005 -0.001 0.000
2136 4 10.142 11.076 16.369 0.001 -0.006 -0.002 -0.000
2137 4 12.583 8.685 16.029 0.000 0.012 0.004 0.000
2138 4 12.265 10.617 17.853 0.003 -0.000 -0.004 0.000
2139 4 13.735 8.358 18.273 0.006 0.003 0.009 -0.000
2140 4 14.307 10.555 15.825 0.011 -0.006 0.012 0.000
2163 4 -0.712 12.183 18.053 -0.008 -0.003 -0.002 0.000
2164 4 -0.590 14.127 16.461 -0.007 -0.005 0.006 -0.000
2165 4 1.022 12.131 15.996 -0.001 0.000 -0.006 0.000
2166 4 0.750 14.012 18.399 0.004 0.009 0.002 -0.000
2167 4 2.303 12.259 17.899 -0.002 0.002 -0.001 -0.000
2168 4 2.847 14.303 16.193 0.002 -0.002 -0.001 -0.000
2169 4 4.596 12.355 16.212 -0.001 -0.013 0.009 -0.000
2170 4 5.288 14.173 18.468 0.009 0.006 0.009 -0.000
2171 4 7.132 12.046 18.515 -0.012 -0.001 0.008 -0.000
2172 4 6.406 14.407 16.077 -0.004 -0.005 0.010 0.000
2173 4 8.223 12.693 16.254 0.001 -0.014 -0.002 -0.000
2174 4 8.293 14.694 18.344 -0.000 0.003 0.017 0.000
2175 4 10.006 12.387 18.456 -0.005 -0.003 -0.006 -0.000
2176 4 9.836 14.670 16.074 -0.002 -0.009 0.001 0.000
2177 4 11.978 13.000 16.283 0.002 0.007 0.006 -0.000
2178 4 12.374 14.152 18.370 -0.006 0.010 0.007 0.000
2179 4 14.093 12.367 17.952 0.005 -0.004 -0.011 -0.000
2180 4 14.155 14.586 15.844 0.000 -0.002 -0.000 -0.000
2404 4 -1.309 -0.882 19.762 -0.001 -0.003 -0.008 0.000
2408 4 2.830 -0.499 19.918 -0.001 -0.007 -0.001 0.000
2412 4 6.015 -1.207 19.754 0.005 0.003 0.005 0.000
2416 4 10.200 -0.867 19.725 -0.002 0.010 -0.004 -0.000
2420 4 14.054 -0.596 19.836 -0.017 0.011 -0.002 0.000
2443 4 -1.014 0.407 21.755 0.001 -0.012 0.005 -0.000
2444 4 -1.284 2.449 20.227 -0.001 -0.007 -0.002 0.000
2445 4 0.702 0.761 19.519 -0.002 -0.003 0.000 0.000
2448 4 3.118 2.646 19.896 0.005 -0.003 -0.000 -0.000
2449 4 4.845 1.085 19.873 -0.007 -0.001 -0.011 0.000
2452 4 6.801 2.804 19.940 0.007 -0.005 0.012 0.000
2453 4 8.031 0.784 19.927 0.011 -0.001 -0.002 0.000
2456 4 9.908 2.878 19.936 0.007 -0.006 -0.003 -0.000
2457 4 12.137 0.843 19.445 -0.005 -0.009 0.010 -0.000
2459 4 14.368 0.884 21.820 -0.007 -0.001 0.004 -0.000
2460 4 14.199 2.431 19.944 0.003 0.002 -0.002 0.000
2484 4 -1.335 6.755 19.705 -0.000 0.010 0.001 -0.000
2485 4 1.330 4.511 19.831 0.003 -0.000 -0.000 0.000
2488 4 2.965 6.774 20.136 0.005 0.005 0.002 -0.000
2489 4 4.787 4.722 19.798 0.000 0.006 -0.004 0.000
2492 4 6.469 6.595 19.950 0.006 0.008 0.002 0.000
2493 4 8.010 4.726 19.805 -0.002 0.007 -0.001 -0.000
2495 4 10.421 4.490 21.769 -0.005 0.007 0.006 0.000
2496 4 10.567 6.248 19.528 -0.004 -0.004 -0.004 -0.000
2497 4 12.350 4.621 19.817 0.010 -0.003 0.004 -0.000
2499 4 13.916 4.475 21.433 -0.007 -0.010 0.002 -0.000
2500 4 14.017 6.445 20.031 -0.004 -0.001 0.005 0.000
2524 4 -0.743 10.611 19.746 -0.001 0.006 -0.007 -0.000
2525 4 0.973 8.559 20.067 -0.007 0.004 -0.003 -0.000
2528 4 2.933 10.351 19.826 -0.000 0.006 0.000 -0.000
2529 4 4.882 8.545 20.094 0.004 0.005 -0.006 -0.000
2531 4 6.976 8.398 21.996 -0.010 -0.002 -0.006 0.000
2532 4 6.684 10.304 20.195 -0.007 -0.004 0.007 0.000
2533 4 8.962 8.716 19.962 -0.006 -0.006 0.011 -0.000
2536 4 10.710 10.586 20.057 0.002 -0.001 0.001 0.000
2537 4 12.151 8.417 19.825 0.005 0.002 0.011 0.000
2538 4 12.595 10.663 21.924 -0.000 0.003 -0.004 0.000
2540 4 14.151 10.248 19.865 -0.001 -0.002 -0.001 0.000
2564 4 -1.082 13.965 20.060 -0.008 0.002 0.001 -0.000
2565 4 0.877 12.262 20.157 0.000 0.009 0.008 -0.000
2568 4 2.921 14.023 20.384 0.000 -0.006 -0.001 0.000
2569 4 4.868 12.166 20.109 -0.006 0.008 0.002 0.000
2572 4 6.914 14.238 20.210 -0.008 0.002 -0.002 0.000
2573 4 8.623 12.009 20.650 -0.006 -0.005 -0.006 -0.000
2574 4 8.506 14.156 22.109 0.000 0.003 0.004 0.000
2576 4 10.549 14.383 20.442 -0.004 0.000 -0.007 -0.000
2577 4 12.258 12.263 20.191 -0.002 -0.000 0.014 -0.000
2579 4 14.496 12.149 22.143 0.004 -0.003 0.000 0.000
2580 4 13.985 14.586 20.079 0.004 -0.005 0.013 -0.000
2534 4 8.862 10.166 22.096 0.002 0.012 0.003 0.000
2406 4 0.804 -0.712 21.748 0.002 -0.002 0.004 0.000
2486 4 0.871 6.322 22.016 0.005 -0.005 -0.006 -0.000
2539 4 14.078 8.638 21.928 0.008 0.004 -0.004 -0.000
2571 4 6.545 12.339 21.912 0.004 -0.010 -0.004 0.000
2566 4 0.691 14.464 21.945 0.004 -0.002 0.008 0.000
2523 4 -0.746 8.212 21.459 0.005 0.004 -0.003 0.000
2527 4 3.070 8.573 21.827 0.008 0.001 -0.003 0.000
2487 4 3.099 4.946 21.432 0.001 -0.005 -0.000 -0.000
2490 4 4.703 6.664 22.096 -0.008 0.005 0.006 -0.000
2455 4 10.171 0.994 21.684 0.007 0.007 0.003 0.000
2410 4 4.517 -0.863 22.022 -0.005 0.002 -0.007 0.000
2483 4 -1.220 4.452 21.671 -0.005 0.004 -0.001 -0.000
2535 4 10.754 8.323 21.949 0.004 0.001 0.004 -0.000
2570 4 4.603 14.117 22.176 0.003 0.005 0.008 -0.000
2414 4 8.466 -1.022 21.710 0.007 0.009 -0.004 0.000
2494 4 8.753 6.897 21.612 0.010 -0.008 0.004 0.000
2526 4 0.882 10.367 21.787 0.005 0.001 -0.002 0.000
2454 4 8.370 2.614 22.021 0.003 -0.003 -0.004 0.000
2450 4 4.970 2.777 21.544 -0.000 0.004 0.009 0.000
2451 4 6.547 0.851 21.946 -0.012 -0.006 -0.002 -0.000
2563 4 -1.026 12.050 21.889 0.004 0.005 0.007 0.000
2447 4 2.792 0.922 21.970 -0.005 0.003 0.000 0.000
2530 4 4.575 10.706 22.250 -0.005 0.005 0.004 0.000
2567 4 2.433 12.425 22.295 -0.008 -0.009 -0.002 0.000
2446 4 1.053 2.377 21.356 -0.003 -0.005 -0.007 0.000
2575 4 10.628 12.243 22.179 0.004 -0.008 0.001 0.000
2491 4 6.955 4.496 21.982 -0.003 0.002 0.004 0.000
2578 4 12.295 14.254 22.353 -0.001 0.004 0.012 -0.000
2498 4 12.211 6.492 21.612 0.008 -0.007 -0.008 -0.000
2458 4 12.320 2.389 21.344 0.001 -0.000 -0.000 0.000
11 4 6.640 -2.990 -1.592 -0.001 -0.016 0.002 -0.000
3 4 -0.920 -2.757 -1.296 0.004 0.007 -0.000 -0.000
413 4 8.596 -2.991 0.725 0.008 -0.009 0.000 -0.000
2418 4 12.374 -0.596 21.670 -0.002 -0.005 0.006 0.000
813 4 9.061 -2.650 4.495 -0.006 -0.004 0.003 -0.000
522 4 -2.922 10.489 2.842 0.002 -0.007 0.000 -0.000
1681 4 -2.574 4.375 12.396 -0.001 0.008 0.000 -0.000
1782 4 16.008 14.368 14.063 0.006 -0.004 -0.002 0.000
441 4 -2.918 0.944 0.495 -0.002 -0.002 0.002 0.000
402 4 -2.817 -1.375 2.327 0.003 -0.002 0.004 -0.000
182 4 16.033 14.119 -0.914 0.007 -0.003 -0.004 0.000
817 4 12.175 -2.987 4.402 0.003 0.003 0.002 -0.000
1642 4 -2.964 2.632 14.466 -0.001 0.007 0.001 -0.000
1741 4 16.088 8.844 12.089 0.003 -0.004 -0.007 0.000
2481 4 -2.966 5.135 19.681 -0.005 0.002 -0.008 0.000
2011 4 6.477 -2.638 17.583 0.001 -0.003 0.003 -0.000
981 4 15.928 11.988 4.428 -0.000 0.005 0.006 -0.000
1322 4 -2.365 10.335 10.247 0.008 -0.014 -0.004 -0.000
1613 4 8.675 -3.024 12.719 -0.001 -0.005 -0.009 -0.000
2003 4 -1.305 -2.733 18.256 0.000 -0.002 -0.001 -0.000
1781 4 15.733 11.855 12.309 0.008 0.001 -0.001 -0.000
2405 4 0.909 -2.505 19.808 -0.002 -0.002 -0.001 -0.000
1761 4 -2.659 12.522 11.848 -0.001 -0.008 0.002 -0.000
1762 4 -2.747 14.255 14.198 -0.001 -0.000 0.011 0.000
1005 4 0.608 16.119 4.565 -0.005 0.006 -0.001 0.000
805 4 1.218 -2.946 4.079 -0.009 -0.004 0.006 0.000
1622 4 16.078 -0.926 14.198 0.005 0.005 -0.006 -0.000
1722 4 -2.432 10.299 14.207 -0.007 -0.002 0.005 -0.000
922 4 -2.575 10.401 6.264 -0.005 -0.008 0.005 0.000
1003 4 -0.930 16.025 6.706 0.005 -0.001 -0.004 0.000
2417 4 12.488 -2.831 19.778 -0.007 -0.001 0.015 -0.000
1222 4 15.829 -1.336 10.391 0.004 0.003 0.005 -0.000
901 4 15.985 4.107 4.289 0.015 -0.007 -0.002 0.000
1382 4 15.960 14.147 10.278 0.006 -0.002 -0.001 0.000
603 4 -1.031 16.100 2.357 0.002 -0.001 -0.007 0.000
2415 4 10.786 -2.805 21.389 -0.003 0.003 0.003 0.000
2181 4 15.941 12.842 16.222 0.004 0.000 0.005 -0.000
42 4 -2.783 2.934 -1.301 -0.002 -0.008 0.001 -0.000
1721 4 -2.774 8.511 12.084 -0.015 -0.001 0.007 -0.000
1321 4 -2.817 8.396 8.015 0.008 -0.002 -0.004 -0.000
2413 4 8.542 -2.749 19.642 0.006 0.002 -0.005 -0.000
819 4 13.806 -2.828 6.487 0.008 -0.004 0.001 0.000
2015 4 10.180 -2.802 17.889 -0.001 0.008 -0.001 0.000
2182 4 15.283 14.765 17.823 -0.004 -0.003 0.003 0.000
1361 4 -2.963 12.245 8.526 -0.003 -0.006 0.005 -0.000
2609 4 4.732 15.825 20.297 0.004 0.007 -0.004 0.000