ITEM: TIMESTEP
33000
ITEM: NUMBER OF ATOMS
32000
ITEM: BOX BOUNDS pp pp pp
-3.142898 73.622898
-2.935376 73.415376
-2.989322 73.469322
ITEM: ATOMS id type x y z vx vy vz q
6 4 0.833 -1.147 -0.906 0.004 0.002 0.004 0.000
10 4 4.440 -0.897 -1.252 0.010 -0.017 0.003 -0.000
14 4 7.890 -0.764 -1.392 0.003 -0.000 -0.004 -0.000
18 4 11.904 -0.773 -1.055 0.004 -0.011 -0.008 0.000
43 4 -1.088 0.766 -0.885 0.006 -0.009 -0.009 0.000
46 4 0.776 2.573 -1.434 0.001 0.003 0.003 -0.000
47 4 2.415 0.792 -1.231 0.002 0.004 0.004 0.000
50 4 4.669 3.011 -1.344 -0.004 0.008 -0.008 0.000
51 4 6.276 0.776 -1.336 0.005 0.002 0.004 -0.000
54 4 8.595 3.085 -1.006 0.001 -0.001 -0.002 -0.000
55 4 10.244 1.339 -1.096 0.002 -0.005 -0.001 -0.000
58 4 11.807 3.500 -1.054 -0.007 0.006 0.002 -0.000
59 4 13.975 1.018 -0.942 0.003 0.010 -0.000 0.000
83 4 -0.886 5.020 -1.055 0.004 -0.010 0.010 -0.000
86 4 0.912 7.133 -1.152 -0.001 -0.003 -0.005 -0.000
87 4 3.018 4.836 -1.173 -0.001 0.008 -0.003 0.000
90 4 5.258 6.597 -1.244 -0.006 0.002 -0.001 0.000
91 4 6.635 4.674 -1.163 -0.003 -0.010 0.004 0.000
94 4 8.142 6.555 -1.315 0.001 0.005 0.003 0.000
95 4 9.969 5.111 -1.287 0.003 0.006 0.010 0.000
98 4 12.337 6.800 -1.042 0.012 0.001 0.000 0.000
99 4 14.093 4.990 -1.023 -0.002 0.005 -0.009 0.000
123 4 -1.267 8.740 -1.103 -0.005 -0.004 -0.015 0.000
126 4 0.865 10.609 -1.601 -0.006 -0.001 -0.004 0.000
127 4 2.812 9.147 -1.049 -0.001 -0.001 0.002 0.000
130 4 4.886 10.892 -1.036 -0.003 0.003 0.001 -0.000
131 4 6.518 8.711 -1.363 0.003 0.005 -0.001 -0.000
134 4 8.693 10.438 -1.180 -0.006 -0.005 -0.001 -0.000
135 4 10.216 8.626 -1.169 0.001 -0.011 0.002 0.000
138 4 11.983 10.972 -1.177 0.004 -0.005 -0.007 -0.000
139 4 14.110 9.012 -1.063 0.007 -0.004 0.003 0.000
163 4 -1.242 12.541 -1.190 0.005 -0.007 -0.005 -0.000
166 4 0.438 14.401 -1.130 -0.001 0.002 -0.008 -0.000
167 4 2.684 12.258 -0.975 0.000 0.001 -0.001 -0.000
170 4 4.590 14.232 -0.647 0.005 0.007 -0.010 -0.000
171 4 6.713 12.454 -1.198 0.006 -0.003 0.002 -0.000
174 4 8.700 14.390 -1.022 -0.002 0.004 0.001 0.000
175 4 9.888 12.431 -1.321 0.008 0.008 -0.006 -0.000
178 4 12.016 14.443 -0.605 0.000 0.002 0.000 -0.000
179 4 14.027 12.668 -0.957 0.005 -0.003 0.004 0.000
404 4 -1.046 -1.101 1.009 0.010 -0.004 0.002 0.000
406 4 0.699 -0.895 2.873 -0.007 0.000 -0.000 0.000
408 4 2.640 -1.138 0.845 -0.005 0.005 0.001 0.000
410 4 4.585 -1.027 2.428 0.000 -0.011 0.003 -0.000
412 4 5.965 -1.041 0.640 0.008 0.001 -0.002 0.000
414 4 8.306 -1.205 2.988 0.001 0.001 0.009 -0.000
416 4 10.064 -1.121 1.039 0.003 -0.008 0.001 0.000
418 4 12.268 -0.915 3.081 0.003 0.010 0.006 0.000
420 4 13.662 -0.933 0.922 -0.003 0.002 0.004 0.000
443 4 -0.878 0.945 2.930 -0.010 0.007 0.004 0.000
444 4 -0.898 3.135 0.683 0.003 -0.003 -0.003 0.000
445 4 0.690 0.625 0.536 0.007 -0.006 0.009 0.000
446 4 0.990 3.113 2.458 -0.002 0.010 -0.008 0.000
447 4 2.768 1.057 2.845 -0.006 -0.004 0.008 0.000
448 4 2.650 2.558 0.359 -0.006 0.006 0.006 0.000
449 4 4.586 1.149 0.934 -0.006 0.004 -0.008 0.000
450 4 4.392 3.066 2.597 0.004 -0.007 -0.007 -0.000
451 4 6.525 0.825 2.796 -0.009 0.003 0.002 -0.000
452 4 6.687 2.889 0.629 -0.001 0.005 0.008 0.000
453 4 8.195 0.730 0.739 0.002 0.005 0.001 -0.000
454 4 8.574 2.595 2.733 0.005 0.006 0.003 -0.000
455 4 10.492 0.876 2.730 0.011 -0.004 0.002 0.000
456 4 10.269 2.705 0.942 -0.006 0.001 0.001 -0.000
457 4 12.003 1.216 0.641 0.010 -0.006 0.007 -0.000
458 4 12.117 2.823 2.928 -0.005 -0.002 -0.002 -0.000
459 4 13.933 1.068 2.719 0.008 0.002 -0.002 0.000
460 4 13.865 2.637 0.603 0.002 -0.001 -0.008 0.000
483 4 -1.375 4.877 2.732 0.001 -0.005 -0.001 0.000
484 4 -1.073 6.723 0.753 -0.003 0.011 0.004 0.000
485 4 0.740 4.869 0.336 0.001 0.007 -0.008 -0.000
486 4 0.966 6.520 2.603 0.007 0.009 0.004 0.000
487 4 2.739 4.597 2.653 0.001 -0.008 -0.009 -0.000
488 4 3.037 6.844 0.310 0.007 -0.006 -0.002 0.000
489 4 4.682 4.772 0.757 0.010 0.001 -0.001 0.000
490 4 4.272 6.489 2.690 0.003 0.005 0.001 -0.000
491 4 6.527 4.729 2.830 0.002 -0.001 -0.009 -0.000
492 4 6.574 6.771 1.275 0.001 -0.003 0.004 0.000
493 4 8.312 4.687 1.130 -0.002 0.001 -0.001 0.000
494 4 8.781 6.878 3.095 0.004 -0.001 0.003 0.000
495 4 10.620 4.758 2.580 0.003 -0.006 -0.004 -0.000
496 4 10.255 6.588 0.853 0.001 0.001 0.001 0.000
497 4 12.318 4.642 0.858 -0.003 0.003 0.006 -0.000
498 4 12.025 6.701 2.771 -0.005 0.004 0.002 -0.000
499 4 13.840 4.882 2.766 0.003 -0.006 -0.011 -0.000
500 4 14.072 7.328 1.130 -0.002 -0.004 0.004 0.000
523 4 -1.001 8.597 2.902 -0.006 -0.001 -0.003 0.000
524 4 -0.701 10.663 0.849 -0.002 -0.007 0.007 0.000
525 4 0.490 8.328 1.097 0.003 -0.002 0.010 0.000
526 4 0.376 10.938 3.056 0.000 -0.000 0.005 0.000
527 4 2.536 8.365 2.701 0.001 -0.002 0.003 -0.000
528 4 2.253 10.576 0.928 0.001 0.004 -0.001 -0.000
529 4 4.336 8.798 0.913 0.002 -0.000 0.001 -0.000
530 4 4.433 10.468 3.016 -0.001 -0.000 -0.001 -0.000
531 4 6.786 8.570 2.806 0.005 -0.007 -0.005 -0.000
532 4 6.654 10.501 0.835 -0.008 -0.004 0.004 -0.000
533 4 8.443 8.515 0.989 -0.012 -0.008 -0.002 0.000
534 4 8.294 11.032 2.686 0.005 -0.011 -0.001 0.000
535 4 10.594 8.888 2.949 0.004 0.009 0.008 0.000
536 4 10.432 10.596 0.768 -0.004 -0.002 -0.014 0.000
537 4 12.197 8.883 0.945 -0.000 -0.000 -0.002 0.000
538 4 12.080 10.901 2.676 0.004 0.003 -0.004 0.000
539 4 14.231 8.991 3.017 0.007 -0.004 0.002 -0.000
540 4 14.321 10.878 0.698 0.005 0.005 -0.004 0.000
563 4 -1.030 12.833 3.068 -0.010 0.007 -0.001 -0.000
564 4 -1.447 14.527 1.174 0.005 -0.003 -0.005 -0.000
565 4 0.572 12.749 1.403 -0.002 -0.003 0.004 -0.000
566 4 0.671 14.654 2.785 0.001 0.005 -0.004 -0.000
567 4 2.456 12.497 2.515 -0.001 0.007 0.002 -0.000
568 4 2.660 14.353 0.755 -0.003 0.002 0.002 -0.000
569 4 4.465 12.519 1.046 0.008 0.004 -0.004 -0.000
570 4 4.472 14.400 2.913 0.004 0.011 0.004 -0.000
571 4 6.296 12.229 2.987 -0.004 -0.004 -0.001 0.000
572 4 6.596 14.448 1.398 0.003 -0.001 0.004 0.000
573 4 8.328 12.490 0.830 -0.009 0.002 0.005 0.000
574 4 8.456 14.262 2.833 0.010 0.001 0.001 0.000
575 4 10.191 12.486 2.731 -0.010 -0.004 0.011 0.000
576 4 10.292 14.695 1.363 -0.008 0.001 0.001 0.000
577 4 12.098 12.451 0.805 0.016 -0.002 -0.008 0.000
578 4 12.495 14.064 3.216 0.000 0.002 0.007 0.000
579 4 14.328 12.079 3.031 0.009 -0.008 0.001 0.000
580 4 13.956 14.235 1.011 0.009 0.001 -0.004 -0.000
804 4 -1.088 -1.139 4.819 0.007 -0.001 -0.011 -0.000
806 4 0.720 -1.597 6.363 0.007 0.002 0.013 0.000
808 4 2.710 -1.049 4.437 -0.001 0.007 -0.007 -0.000
810 4 4.751 -0.815 6.775 0.001 0.003 -0.003 0.000
812 4 6.029 -0.883 4.591 -0.005 0.008 -0.005 -0.000
814 4 8.174 -0.835 6.545 0.002 0.000 -0.014 -0.000
816 4 10.418 -1.226 4.789 -0.010 0.005 0.001 -0.000
818 4 12.365 -1.384 6.687 0.000 -0.012 0.000 -0.000
820 4 14.176 -1.148 4.366 -0.001 -0.002 -0.002 -0.000
843 4 -1.442 1.068 6.423 0.006 -0.007 0.001 -0.000
844 4 -0.848 2.952 4.523 -0.003 0.006 -0.002 -0.000
845 4 1.032 0.741 4.631 0.004 -0.006 0.011 -0.000
846 4 0.873 2.576 6.549 -0.001 -0.001 0.004 0.000
847 4 2.853 0.523 6.535 -0.002 0.002 0.002 -0.000
848 4 2.794 2.844 4.509 0.001 -0.001 0.005 -0.000
849 4 4.415 0.761 4.485 -0.012 -0.011 0.008 -0.000
850 4 4.602 2.833 6.398 0.000 -0.003 -0.001 -0.000
851 4 6.791 0.964 6.586 -0.001 -0.003 0.004 -0.000
852 4 6.507 2.684 4.370 -0.004 -0.007 -0.011 -0.000
853 4 8.660 0.965 4.768 -0.014 -0.006 -0.004 0.000
854 4 8.357 2.783 6.476 -0.000 -0.002 0.013 0.000
855 4 10.350 0.618 6.421 -0.006 -0.008 -0.017 0.000
856 4 10.329 2.848 4.409 -0.008 0.008 -0.001 0.000
857 4 12.244 0.993 4.705 -0.001 0.004 0.004 0.000
858 4 12.180 2.779 6.665 0.002 0.009 -0.001 0.000
859 4 14.067 0.741 6.328 0.005 0.002 -0.018 -0.000
860 4 13.774 2.876 4.607 -0.005 -0.007 -0.008 -0.000
883 4 -1.099 4.611 6.561 -0.001 -0.012 0.002 0.000
884 4 -1.029 6.730 4.653 0.003 0.002 0.008 0.000
885 4 0.721 4.782 4.468 0.007 -0.004 -0.003 0.000
886 4 0.911 6.847 6.712 -0.005 -0.013 0.009 0.000
887 4 2.660 4.988 6.515 -0.005 -0.005 0.004 0.000
888 4 2.715 6.618 4.594 -0.003 -0.014 0.004 -0.000
889 4 4.351 4.828 4.850 -0.006 -0.011 -0.002 -0.000
890 4 4.909 6.535 6.350 0.009 -0.002 -0.002 -0.000
891 4 6.438 4.545 6.482 0.007 -0.000 0.001 0.000
892 4 6.614 6.598 4.579 0.016 0.001 -0.000 -0.000
893 4 8.710 4.832 4.736 0.001 0.002 0.002 0.000
894 4 8.464 6.663 6.522 -0.008 -0.000 0.001 0.000
895 4 10.377 4.415 6.208 0.004 0.003 -0.006 0.000
896 4 10.468 7.020 4.803 0.004 0.007 -0.006 0.000
897 4 12.002 4.874 4.679 -0.006 0.010 0.002 -0.000
898 4 11.601 6.424 6.537 0.003 -0.004 0.004 -0.000
899 4 14.022 4.686 6.590 0.007 0.002 -0.008 -0.000
900 4 13.680 6.602 4.868 0.002 -0.000 0.000 -0.000
923 4 -1.076 8.692 6.432 -0.001 0.006 0.002 -0.000
924 4 -1.358 10.460 4.920 -0.008 0.001 0.002 -0.000
925 4 0.921 8.422 4.317 0.002 -0.000 -0.009 -0.000
926 4 0.978 10.309 6.537 0.004 0.003 0.006 0.000
927 4 3.117 8.492 6.485 0.005 -0.004 -0.011 -0.000
928 4 2.561 10.502 4.539 -0.006 -0.007 0.006 -0.000
929 4 4.563 8.407 4.275 0.003 0.008 0.004 -0.000
930 4 4.367 10.970 6.396 -0.004 0.005 -0.000 -0.000
931 4 6.399 8.621 6.398 -0.004 0.002 0.000 -0.000
932 4 6.561 10.373 4.738 0.004 -0.000 -0.006 -0.000
933 4 8.543 8.881 4.964 -0.014 -0.004 -0.007 0.000
934 4 8.377 11.195 6.355 0.006 -0.002 0.005 0.000
935 4 10.209 8.700 6.694 0.006 -0.001 -0.001 -0.000
936 4 10.483 10.506 4.789 0.002 0.001 -0.006 0.000
937 4 12.345 8.688 4.867 0.006 -0.002 0.000 -0.000
938 4 12.143 10.377 6.544 -0.008 0.003 -0.002 -0.000
939 4 13.880 8.433 6.618 -0.015 -0.001 -0.006 -0.000
940 4 14.066 10.651 4.784 -0.003 -0.003 -0.017 0.000
963 4 -1.229 12.339 6.553 0.012 0.007 -0.003 0.000
964 4 -1.104 14.365 4.664 -0.001 0.011 -0.006 -0.000
965 4 0.681 12.529 4.848 -0.002 0.000 0.009 0.000
966 4 0.981 14.168 6.836 -0.002 -0.002 -0.003 0.000
967 4 2.507 12.367 6.748 -0.003 0.002 -0.001 0.000
968 4 2.108 14.540 4.594 0.003 0.002 -0.008 0.000
969 4 4.648 12.721 4.671 0.006 -0.007 0.005 0.000
970 4 4.343 14.149 6.466 -0.010 -0.002 0.008 0.000
971 4 6.473 12.929 6.575 0.003 0.001 -0.007 0.000
972 4 6.399 14.618 4.231 -0.005 0.001 -0.006 0.000
973 4 7.961 12.703 4.735 -0.003 0.011 -0.003 0.000
974 4 8.158 14.583 6.347 0.001 -0.005 -0.009 -0.000
975 4 10.500 12.545 6.578 -0.007 -0.005 0.007 -0.000
976 4 10.241 13.973 4.778 -0.004 -0.008 -0.001 0.000
977 4 12.258 12.084 4.883 -0.005 0.010 0.000 -0.000
978 4 12.613 14.395 6.569 0.003 -0.007 0.006 -0.000
979 4 14.284 12.413 6.567 -0.004 0.003 0.007 0.000
980 4 14.297 14.036 4.758 -0.003 -0.000 -0.000 -0.000
1204 4 -1.268 -0.843 8.512 0.001 -0.001 0.012 0.000
1206 4 1.187 -0.777 10.367 0.000 0.004 0.005 -0.000
1208 4 2.459 -0.889 8.278 0.004 0.004 0.001 0.000
1210 4 4.161 -0.529 10.347 -0.002 0.000 0.001 -0.000
1212 4 6.589 -0.922 8.911 -0.003 -0.001 -0.007 0.000
1214 4 8.419 -1.276 10.691 -0.005 -0.006 -0.002 -0.000
1216 4 10.134 -1.200 8.737 -0.001 0.004 0.005 -0.000
1218 4 12.088 -1.421 10.370 -0.008 -0.003 0.001 -0.000
1220 4 14.266 -1.307 8.411 0.008 -0.009 -0.002 -0.000
1243 4 -0.778 1.240 10.282 0.005 0.002 -0.001 0.000
1244 4 -1.296 2.967 8.216 0.010 -0.003 -0.001 0.000
1245 4 0.833 0.782 8.114 -0.020 -0.008 0.007 0.000
1246 4 0.885 3.367 10.750 0.008 0.012 0.004 0.000
1247 4 2.324 1.258 10.159 0.003 0.010 -0.005 -0.000
1248 4 2.612 2.785 8.105 -0.006 -0.009 -0.002 0.000
1249 4 4.671 1.062 8.202 0.010 0.008 -0.012 -0.000
1250 4 4.837 2.642 10.170 0.005 0.008 0.001 -0.000
1251 4 6.596 0.710 10.503 -0.001 -0.001 -0.004 0.000
1252 4 6.536 2.773 8.525 -0.008 -0.001 -0.002 0.000
1253 4 8.503 0.634 8.464 0.002 0.013 0.008 -0.000
1254 4 8.515 2.741 10.155 0.003 0.004 0.004 0.000
1255 4 10.304 0.517 10.291 -0.009 0.009 -0.006 -0.000
1256 4 10.321 2.733 8.596 0.007 0.001 -0.006 0.000
1257 4 12.121 0.891 8.467 0.001 0.004 0.006 0.000
1258 4 12.228 2.912 10.668 0.006 0.003 -0.007 0.000
1259 4 14.020 0.662 10.353 0.006 -0.001 0.003 0.000
1260 4 13.968 2.735 8.566 -0.001 -0.004 -0.007 0.000
1283 4 -1.375 4.754 10.299 0.004 -0.005 -0.003 0.000
1284 4 -1.423 6.823 8.492 0.004 0.003 0.003 0.000
1285 4 0.716 4.780 8.433 -0.003 -0.001 0.018 0.000
1286 4 0.820 6.590 10.349 0.007 0.003 -0.004 0.000
1287 4 2.757 4.986 10.048 -0.002 -0.000 -0.011 -0.000
1288 4 3.240 6.552 8.371 -0.007 0.012 -0.008 -0.000
1289 4 4.657 4.542 8.412 -0.001 0.003 0.004 0.000
1290 4 4.706 6.984 10.266 0.005 -0.001 -0.012 -0.000
1291 4 6.409 4.692 10.304 0.008 -0.001 0.008 0.000
1292 4 6.289 6.739 8.431 0.004 -0.001 0.007 0.000
1293 4 8.468 4.805 8.565 0.004 -0.014 -0.009 0.000
1294 4 8.493 6.680 10.431 -0.006 0.001 0.006 0.000
1295 4 10.359 4.832 10.681 0.000 -0.006 -0.003 0.000
1296 4 10.062 6.637 8.443 0.001 -0.005 -0.002 0.000
1297 4 11.850 4.469 8.402 -0.011 0.012 -0.004 -0.000
1298 4 12.072 6.726 10.378 0.001 0.008 0.003 -0.000
1299 4 14.013 4.725 10.066 -0.010 -0.002 -0.004 0.000
1300 4 13.704 6.507 8.402 -0.006 0.008 -0.011 -0.000
1323 4 -1.058 8.523 10.634 -0.005 0.009 0.000 0.000
1324 4 -0.725 10.372 8.497 0.008 0.001 -0.007 0.000
1325 4 0.736 8.064 8.391 -0.003 0.003 -0.005 0.000
1326 4 0.831 10.273 10.307 -0.006 -0.007 0.002 -0.000
1327 4 2.718 8.662 10.008 -0.005 -0.004 -0.011 -0.000
1328 4 2.739 10.356 8.733 -0.000 0.006 0.008 -0.000
1329 4 4.796 8.971 8.276 0.005 0.007 -0.006 -0.000
1330 4 4.757 10.222 10.500 -0.002 0.003 0.005 -0.000
1331 4 6.757 8.481 10.326 0.008 0.007 -0.004 0.000
1332 4 6.778 10.490 7.955 -0.001 -0.000 -0.012 0.000
1333 4 8.230 8.799 8.288 0.002 0.005 0.002 0.000
1334 4 8.137 10.610 9.916 -0.006 0.004 -0.006 0.000
1335 4 10.262 8.529 10.376 -0.005 -0.003 0.002 -0.000
1336 4 10.142 10.614 8.370 0.010 -0.004 0.008 -0.000
1337 4 12.063 8.717 8.689 -0.002 -0.000 -0.001 -0.000
1338 4 12.303 10.575 10.175 0.000 0.010 -0.009 -0.000
1339 4 13.861 8.312 10.154 0.009 0.000 -0.007 0.000
1340 4 14.061 10.818 8.348 -0.002 -0.010 -0.013 0.000
1363 4 -1.514 12.439 10.346 0.004 -0.004 -0.006 -0.000
1364 4 -0.914 14.192 8.746 -0.003 -0.003 -0.005 -0.000
1365 4 0.859 12.323 8.654 -0.007 0.001 0.003 0.000
1366 4 0.750 14.717 10.345 -0.002 -0.009 -0.006 -0.000
1367 4 2.784 12.146 10.391 0.002 0.012 0.001 0.000
1368 4 2.972 14.173 8.814 -0.006 -0.001 0.004 0.000
1369 4 4.647 11.919 8.487 -0.002 0.006 0.006 0.000
1370 4 4.597 13.975 10.509 0.003 -0.008 -0.000 0.000
1371 4 6.934 12.438 10.436 -0.004 0.005 0.004 0.000
1372 4 6.260 14.371 8.734 0.008 0.000 -0.005 -0.000
1373 4 8.128 12.957 8.249 0.006 -0.002 0.006 -0.000
1374 4 8.453 14.659 10.406 -0.007 0.014 -0.002 -0.000
1375 4 10.006 12.600 9.970 0.003 -0.003 0.004 -0.000
1376 4 10.659 14.487 7.898 0.002 -0.003 0.003 -0.000
1377 4 12.503 12.386 8.497 -0.005 0.008 0.000 -0.000
1378 4 12.031 14.526 10.112 0.000 0.008 0.001 -0.000
1379 4 14.255 12.593 10.324 -0.001 0.009 -0.006 -0.000
1380 4 14.279 14.182 8.539 0.011 0.007 0.012 0.000
1604 4 -1.153 -0.652 11.379 0.000 -0.002 -0.005 -0.000
1606 4 0.857 -1.111 14.534 -0.002 0.004 -0.011 0.000
1608 4 2.604 -0.874 12.544 -0.003 0.004 -0.002 -0.000
1610 4 4.707 -1.133 14.164 0.011 0.010 -0.002 0.000
1612 4 6.243 -0.967 12.291 -0.003 0.003 -0.003 0.000
1614 4 8.081 -0.892 14.601 -0.003 0.001 -0.009 0.000
1616 4 10.463 -1.026 12.223 -0.007 0.004 0.008 -0.000
1618 4 12.122 -1.062 14.396 -0.002 -0.000 0.007 -0.000
1620 4 14.068 -1.129 12.981 0.005 0.007 -0.008 0.000
1643 4 -1.355 0.865 13.932 0.010 0.004 -0.011 0.000
1644 4 -1.248 2.914 12.133 -0.001 -0.011 -0.000 0.000
1645 4 0.723 0.970 12.464 0.009 -0.002 0.005 -0.000
1646 4 0.601 2.872 14.036 -0.000 -0.003 -0.009 0.000
1647 4 2.653 1.299 14.207 0.006 -0.012 0.004 -0.000
1648 4 2.679 2.889 12.337 0.010 -0.001 -0.001 -0.000
1649 4 3.949 0.882 12.280 -0.002 -0.002 -0.005 -0.000
1650 4 4.585 3.047 13.882 -0.003 -0.004 -0.007 0.000
1651 4 6.259 0.852 14.490 -0.000 -0.002 -0.000 0.000
1652 4 6.639 2.960 12.071 -0.001 0.003 -0.008 0.000
1653 4 8.330 0.645 12.328 0.017 -0.002 0.006 0.000
1654 4 8.039 2.696 14.439 0.009 -0.004 0.002 0.000
1655 4 10.173 0.644 14.347 0.007 -0.002 0.003 -0.000
1656 4 10.172 2.600 12.554 -0.004 -0.001 0.006 0.000
1657 4 12.349 0.566 12.462 -0.005 0.006 -0.013 0.000
1658 4 12.527 2.738 14.302 0.001 -0.005 0.001 0.000
1659 4 14.165 0.647 14.662 -0.003 -0.005 0.005 0.000
1660 4 14.456 2.648 12.307 -0.005 0.010 0.006 0.000
1683 4 -1.242 4.850 14.218 -0.006 -0.010 -0.002 0.000
1684 4 -0.830 6.579 12.427 0.002 -0.002 -0.000 0.000
1685 4 0.678 4.966 12.143 -0.000 -0.005 -0.002 0.000
1686 4 0.732 6.552 14.454 -0.000 -0.005 -0.008 -0.000
1687 4 2.479 4.830 14.026 -0.009 -0.003 0.007 -0.000
1688 4 2.876 6.736 12.254 0.005 -0.008 -0.007 -0.000
1689 4 4.480 4.726 12.144 0.004 -0.006 0.010 -0.000
1690 4 4.651 6.737 14.187 -0.004 -0.004 0.000 0.000
1691 4 6.393 4.730 14.121 0.001 -0.007 -0.004 0.000
1692 4 6.477 6.336 12.101 0.006 0.000 -0.004 0.000
1693 4 8.516 4.220 12.474 0.001 0.000 0.000 0.000
1694 4 8.368 6.413 13.962 0.004 -0.002 -0.003 0.000
1695 4 10.385 4.371 14.170 -0.012 -0.005 -0.001 -0.000
1696 4 10.287 6.589 12.501 0.013 -0.009 0.001 -0.000
1697 4 12.187 4.926 12.334 0.006 0.001 0.001 -0.000
1698 4 12.307 6.931 13.847 0.000 0.002 0.000 -0.000
1699 4 14.392 4.712 14.018 -0.007 0.005 0.003 0.000
1700 4 14.169 6.717 12.040 0.002 -0.005 0.006 0.000
1723 4 -1.280 8.438 14.041 -0.006 0.003 0.004 -0.000
1724 4 -0.876 10.561 12.388 0.011 -0.003 -0.002 -0.000
1725 4 0.841 8.363 12.433 0.010 -0.002 -0.008 -0.000
1726 4 0.749 10.304 14.122 0.004 -0.010 -0.003 0.000
1727 4 2.524 8.757 14.546 0.002 0.003 0.009 -0.000
1728 4 3.028 10.071 12.555 0.000 -0.006 0.009 -0.000
1729 4 5.031 8.541 12.298 -0.004 -0.003 0.003 0.000
1730 4 5.147 10.380 14.457 -0.001 0.002 0.002 0.000
1731 4 6.733 8.213 14.194 -0.005 0.008 -0.003 0.000
1732 4 6.782 10.675 12.403 0.004 -0.002 0.002 0.000
1733 4 8.535 8.579 12.200 -0.011 0.001 -0.008 0.000
1734 4 8.450 10.388 13.912 -0.004 -0.011 -0.000 0.000
1735 4 10.060 8.696 14.304 -0.003 0.012 -0.005 0.000
1736 4 10.431 10.426 12.072 -0.006 -0.004 0.011 0.000
1737 4 11.628 8.482 12.227 0.005 -0.002 -0.007 -0.000
1738 4 12.036 10.274 14.053 -0.002 -0.006 -0.005 -0.000
1739 4 14.122 8.502 14.016 -0.012 0.002 0.003 0.000
1740 4 13.859 10.477 12.106 -0.003 0.003 -0.003 0.000
1763 4 -1.016 12.493 13.817 -0.007 -0.004 0.002 0.000
1764 4 -1.186 14.853 12.237 0.003 -0.004 0.005 -0.000
1765 4 0.692 12.469 11.691 -0.013 -0.003 0.008 -0.000
1766 4 1.150 14.081 13.744 0.006 0.001 -0.000 0.000
1767 4 2.982 12.230 14.196 -0.002 -0.009 0.003 0.000
1768 4 2.956 14.063 12.256 -0.004 -0.002 -0.008 0.000
1769 4 4.834 11.939 12.255 0.004 -0.004 -0.008 0.000
1770 4 4.590 14.145 13.855 -0.002 0.011 0.007 0.000
1771 4 6.522 12.408 14.216 0.007 -0.000 0.001 0.000
1772 4 6.522 14.166 12.318 0.001 0.008 -0.006 -0.000
1773 4 8.677 12.347 12.019 -0.002 0.007 0.000 0.000
1774 4 8.580 13.907 14.149 0.010 0.002 0.003 -0.000
1775 4 10.336 12.289 14.164 0.003 -0.007 -0.002 0.000
1776 4 10.148 14.166 12.151 -0.005 0.011 0.002 0.000
1777 4 11.976 12.606 12.000 -0.005 0.001 0.009 0.000
1778 4 12.055 14.003 13.931 0.005 0.006 0.005 0.000
1779 4 13.718 12.386 13.966 -0.002 0.001 0.007 -0.000
1780 4 13.855 14.169 12.013 0.003 -0.000 -0.002 -0.000
2004 4 -1.238 -0.705 15.758 -0.002 -0.004 0.005 0.000
2006 4 0.254 -1.083 17.628 -0.008 0.000 0.010 0.000
2008 4 3.034 -0.852 16.018 -0.014 0.012 -0.009 -0.000
2010 4 4.794 -0.904 17.898 -0.002 -0.009 0.007 -0.000
2012 4 6.561 -1.115 16.395 -0.000 0.001 0.000 0.000
2014 4 8.717 -1.255 18.193 0.000 0.008 -0.002 -0.000
2016 4 10.478 -0.975 16.221 -0.009 -0.005 -0.009 -0.000
2018 4 12.306 -1.131 17.723 0.004 0.003 0.006 -0.000
2020 4 14.000 -1.424 16.306 -0.004 0.003 -0.001 -0.000
2043 4 -1.206 1.244 17.386 0.008 -0.001 0.001 0.000
2044 4 -1.235 3.102 15.894 0.009 -0.004 0.005 0.000
2045 4 0.842 1.255 15.956 0.000 -0.003 -0.004 0.000
2046 4 0.349 3.201 18.123 -0.002 0.003 0.001 0.000
2047 4 2.138 1.038 17.922 0.007 0.006 0.011 -0.000
2048 4 2.444 3.126 16.059 0.014 -0.004 0.005 0.000
2049 4 4.510 1.043 16.255 -0.007 0.014 -0.008 0.000
2050 4 4.485 2.930 17.892 0.001 0.008 0.019 -0.000
2051 4 6.596 1.259 18.227 0.006 -0.008 0.017 -0.000
2052 4 6.326 2.743 16.273 -0.004 -0.002 0.001 0.000
2053 4 8.254 0.612 16.321 -0.002 -0.005 -0.004 0.000
2054 4 8.478 2.968 17.576 0.005 0.011 -0.007 -0.000
2055 4 10.624 0.664 18.195 -0.006 0.012 0.002 -0.000
2056 4 10.353 2.646 15.742 0.004 -0.001 0.005 0.000
2057 4 12.243 1.013 16.286 0.001 0.003 -0.004 -0.000
2058 4 12.320 3.135 17.821 -0.005 0.006 -0.002 -0.000
2059 4 14.306 0.523 17.863 0.005 -0.002 0.000 -0.000
2060 4 14.507 2.765 16.346 0.007 0.005 0.002 0.000
2083 4 -1.508 4.905 18.094 0.004 0.004 -0.003 -0.000
2084 4 -1.175 6.783 16.082 -0.001 0.004 0.001 -0.000
2085 4 0.738 4.814 16.296 0.010 -0.004 -0.002 0.000
2086 4 0.424 6.750 17.979 -0.009 0.011 0.008 -0.000
2087 4 2.430 4.586 18.120 0.001 -0.010 0.007 0.000
2088 4 2.630 6.809 16.101 0.000 0.002 -0.011 0.000
2089 4 4.179 4.887 15.981 0.002 0.002 -0.005 0.000
2090 4 4.508 6.202 17.967 -0.008 -0.006 -0.008 0.000
2091 4 6.654 4.677 18.188 -0.001 0.001 -0.007 -0.000
2092 4 6.367 6.290 16.026 -0.002 -0.007 0.002 0.000
2093 4 8.536 4.905 16.211 -0.008 -0.008 0.002 -0.000
2094 4 8.314 6.243 18.356 0.008 0.000 -0.004 -0.000
2095 4 10.243 4.560 17.984 -0.005 -0.001 -0.007 -0.000
2096 4 10.349 6.403 15.981 0.003 -0.003 -0.003 -0.000
2097 4 12.079 4.729 15.861 0.001 -0.007 0.009 -0.000
2098 4 12.372 6.134 17.780 -0.000 0.004 0.003 0.000
2099 4 14.641 4.712 17.937 0.003 0.003 0.001 -0.000
2100 4 14.087 6.106 16.020 -0.004 -0.002 -0.008 -0.000
2123 4 -1.028 8.758 17.493 0.002 0.003 -0.012 0.000
2124 4 -1.270 10.534 15.815 0.009 0.003 -0.002 0.000
2125 4 0.519 8.475 15.791 0.005 -0.005 -0.010 0.000
2126 4 1.243 10.216 18.245 0.007 0.008 -0.006 0.000
2127 4 3.030 8.155 17.870 0.001 0.008 0.001 0.000
2128 4 2.412 10.654 16.396 -0.006 0.009 -0.002 0.000
2129 4 4.655 8.004 16.073 0.004 -0.010 -0.011 0.000
2130 4 4.534 10.372 17.670 -0.007 0.002 -0.002 0.000
2131 4 6.542 8.541 17.582 -0.001 0.003 0.015 0.000
2132 4 7.017 10.178 15.610 0.007 -0.000 -0.008 0.000
2133 4 8.619 8.017 16.282 -0.007 0.005 0.001 -0.000
2134 4 8.619 9.891 17.875 0.004 0.007 0.000 -0.000
2135 4 10.209 8.225 17.921 0.003 0.002 0.002 0.000
2136 4 10.488 10.347 16.013 0.004 0.006 -0.000 -0.000
2137 4 12.255 8.204 15.785 -0.010 0.001 0.001 0.000
2138 4 12.553 10.345 18.036 0.002 0.013 -0.005 0.000
2139 4 14.088 8.275 17.430 -0.005 -0.001 -0.000 0.000
2140 4 13.990 10.532 15.728 -0.005 -0.005 -0.003 -0.000
2163 4 -0.796 11.630 18.397 0.001 0.008 0.006 0.000
2164 4 -1.417 13.933 16.083 0.004 -0.004 -0.000 0.000
2165 4 0.713 12.542 16.022 -0.001 -0.009 -0.008 0.000
2166 4 0.892 14.151 18.066 0.004 -0.009 -0.003 -0.000
2167 4 2.685 12.465 18.039 -0.005 0.007 0.003 -0.000
2168 4 2.712 14.272 15.916 0.001 0.001 -0.002 -0.000
2169 4 4.621 12.377 16.038 -0.002 -0.003 0.002 -0.000
2170 4 4.796 14.470 18.332 0.010 0.001 -0.002 -0.000
2171 4 6.550 11.878 18.143 -0.016 -0.004 0.000 -0.000
2172 4 6.184 14.153 16.175 -0.003 -0.001 0.001 -0.000
2173 4 8.442 12.138 16.394 -0.002 -0.001 0.002 -0.000
2174 4 8.448 14.284 17.765 0.001 -0.002 0.001 -0.000
2175 4 10.233 12.412 18.128 -0.000 0.000 0.003 -0.000
2176 4 10.551 14.239 15.994 -0.012 -0.004 0.010 -0.000
2177 4 12.073 12.115 16.266 -0.001 -0.003 0.000 -0.000
2178 4 12.251 14.457 18.026 0.007 -0.001 0.005 -0.000
2179 4 14.245 12.496 17.758 0.004 0.004 -0.011 -0.000
2180 4 14.401 14.607 16.337 0.004 -0.004 0.004 -0.000
2404 4 -1.363 -1.160 19.829 -0.002 -0.007 -0.001 -0.000
2408 4 2.654 -0.981 19.524 -0.004 0.007 0.004 -0.000
2412 4 6.846 -0.816 20.123 0.009 -0.003 0.001 -0.000
2416 4 10.452 -1.093 19.822 0.000 -0.000 0.000 -0.000
2420 4 13.898 -1.030 20.183 0.003 -0.004 -0.011 -0.000
2444 4 -1.396 2.923 19.915 0.002 -0.005 0.001 0.000
2445 4 0.637 0.951 19.756 -0.001 -0.009 -0.003 -0.000
2448 4 2.563 2.888 20.046 -0.004 -0.001 -0.002 -0.000
2449 4 4.236 0.689 19.815 -0.009 0.001 0.003 -0.000
2452 4 6.893 2.837 20.048 -0.002 0.002 -0.006 -0.000
2453 4 8.514 1.075 20.068 0.006 0.012 -0.001 -0.000
2456 4 10.310 2.655 20.090 0.010 -0.007 -0.001 -0.000
2457 4 12.372 1.035 20.075 0.005 0.001 -0.008 -0.000
2460 4 14.324 2.562 19.833 -0.005 -0.001 0.001 -0.000
2484 4 -1.330 6.545 20.041 -0.016 0.000 -0.001 -0.000
2485 4 0.769 4.812 20.128 0.004 0.010 0.009 -0.000
2488 4 2.607 6.525 19.907 0.004 -0.003 -0.003 -0.000
2489 4 4.798 4.581 19.851 -0.001 -0.006 0.012 -0.000
2492 4 6.240 6.281 19.976 0.004 -0.008 -0.001 -0.000
2493 4 8.557 4.442 19.965 0.006 0.000 0.000 -0.000
2496 4 10.294 6.188 20.205 0.010 0.010 -0.002 0.000
2497 4 12.005 4.609 19.923 -0.018 -0.002 -0.000 0.000
2500 4 14.255 6.438 19.773 0.002 -0.008 -0.002 0.000
2524 4 -1.053 9.954 19.955 -0.003 -0.007 0.002 -0.000
2525 4 0.693 8.190 20.161 -0.002 0.002 0.003 -0.000
2528 4 2.612 10.252 19.763 0.001 0.004 -0.008 -0.000
2529 4 4.730 8.351 19.779 0.003 0.002 -0.001 0.000
2532 4 6.457 10.087 20.531 0.000 0.000 0.010 -0.000
2533 4 8.370 8.402 20.032 0.008 -0.007 -0.003 0.000
2536 4 10.667 10.113 19.612 -0.000 0.002 0.000 0.000
2537 4 12.646 8.236 19.599 -0.004 0.009 0.001 0.000
2540 4 14.053 10.283 19.870 0.008 -0.002 -0.007 0.000
2564 4 -0.855 14.116 19.746 -0.003 -0.007 -0.002 0.000
2565 4 0.834 12.387 20.151 -0.003 -0.003 0.003 -0.000
2568 4 2.851 14.271 19.879 0.006 -0.000 0.007 -0.000
2569 4 4.755 12.029 19.832 0.011 -0.011 0.005 -0.000
2572 4 6.976 13.935 19.706 -0.004 -0.003 -0.005 0.000
2573 4 8.425 12.151 19.910 0.001 0.007 0.007 -0.000
2576 4 10.131 14.035 20.221 -0.001 0.003 0.011 0.000
2577 4 12.418 12.488 19.590 0.001 -0.005 0.011 -0.000
2580 4 14.251 14.245 19.672 0.002 0.007 -0.000 -0.000
2483 4 -1.179 5.108 22.041 -0.005 0.001 -0.006 -0.000
2446 4 0.738 2.846 21.775 0.010 -0.002 0.001 -0.000
2458 4 12.213 2.749 21.787 -0.006 0.010 0.009 0.000
2563 4 -0.861 12.019 21.496 -0.005 -0.003 0.007 -0.000
2570 4 4.743 14.511 21.322 -0.009 0.001 0.011 -0.000
2450 4 4.446 2.436 22.016 -0.004 0.001 0.002 -0.000
2491 4 6.393 4.334 21.978 0.005 0.001 -0.003 0.000
2447 4 2.281 1.017 21.726 0.003 -0.008 -0.008 -0.000
2495 4 10.358 4.306 22.102 -0.001 0.003 0.004 0.000
2575 4 10.511 12.145 21.431 -0.004 0.010 0.007 -0.000
2406 4 0.387 -1.134 21.849 0.003 -0.002 -0.013 -0.000
2574 4 8.628 14.726 21.924 -0.002 -0.005 0.005 0.000
2531 4 6.589 8.528 22.155 -0.003 -0.001 0.001 0.000
2527 4 2.503 8.134 22.067 0.004 0.016 -0.003 -0.000
2499 4 14.125 4.538 21.884 -0.006 0.002 -0.005 -0.000
2566 4 1.179 14.448 21.841 0.002 -0.002 -0.001 -0.000
2490 4 4.679 6.375 21.949 -0.003 0.002 0.001 0.000
2443 4 -1.169 0.816 21.819 -0.000 0.001 -0.009 0.000
2579 4 13.857 12.147 21.760 0.008 -0.007 -0.009 -0.000
2410 4 4.531 -0.871 21.927 -0.000 -0.011 0.000 -0.000
2567 4 2.602 12.153 21.436 0.002 0.006 -0.003 -0.000
2526 4 1.056 10.214 21.556 0.005 0.008 -0.002 -0.000
2538 4 12.331 10.171 21.623 -0.009 0.013 0.001 0.000
2539 4 14.008 8.211 22.079 0.005 0.010 0.007 0.000
2494 4 8.265 6.186 21.568 0.003 0.003 0.002 0.000
2414 4 8.852 -0.984 21.781 -0.003 0.004 0.009 0.000
2578 4 12.029 14.222 21.454 -0.001 -0.004 0.001 -0.000
2498 4 12.054 6.519 21.831 0.004 0.019 0.014 0.000
2486 4 0.194 6.834 22.199 -0.004 -0.002 0.003 -0.000
2534 4 8.341 10.502 21.645 0.004 -0.007 -0.002 -0.000
2530 4 4.321 10.166 21.679 -0.016 0.002 0.006 0.000
2535 4 10.095 8.567 22.026 -0.008 0.002 0.001 0.000
2571 4 6.158 12.415 21.679 -0.009 0.005 0.002 -0.000
2455 4 10.294 1.016 21.807 0.005 0.002 0.008 0.000
2459 4 14.144 0.740 21.614 0.001 -0.004 0.004 0.000
2418 4 11.989 -1.047 21.697 -0.009 0.006 -0.018 0.000
2487 4 2.407 5.045 22.230 0.004 0.003 -0.006 -0.000
2451 4 6.314 0.998 21.738 -0.002 -0.010 -0.003 0.000
2142 4 15.887 10.087 17.781 -0.002 0.006 0.007 0.000
962 4 -2.908 14.295 6.500 0.002 0.008 -0.001 -0.000
1203 4 -1.153 -2.703 10.188 0.003 -0.007 -0.006 -0.000
582 4 15.965 14.372 2.540 -0.004 -0.002 0.004 -0.000
815 4 10.444 -2.819 6.559 0.003 -0.004 0.003 -0.000
2403 4 -1.231 -2.913 21.877 0.006 -0.002 0.003 0.000
2162 4 -3.100 14.234 18.314 -0.001 0.002 0.006 0.000
2561 4 -2.975 11.892 19.958 0.004 -0.004 -0.000 0.000
2542 4 15.620 10.355 22.119 0.008 0.012 0.009 0.000
142 4 15.919 10.999 -1.190 0.005 -0.005 -0.007 0.000
813 4 7.873 -2.773 4.819 -0.004 -0.015 0.005 -0.000
2122 4 -2.881 10.348 17.675 -0.004 -0.000 -0.010 0.000
861 4 15.937 1.220 4.796 0.000 0.005 0.011 -0.000
2203 4 -0.883 15.708 17.917 0.007 -0.001 -0.003 -0.000
19 4 13.970 -2.511 -0.693 -0.004 0.003 -0.005 0.000
2405 4 0.600 -2.833 19.745 0.000 -0.000 -0.001 -0.000
20 4 14.185 -0.681 -2.821 -0.001 0.002 -0.005 -0.000
422 4 16.020 -1.065 2.190 0.014 -0.000 -0.005 -0.000
2407 4 2.672 -2.702 21.577 -0.001 0.002 0.006 -0.000
411 4 6.611 -2.532 2.537 -0.008 0.003 -0.002 0.000
1381 4 15.985 12.423 8.143 0.007 -0.002 -0.013 0.000
2541 4 15.681 8.415 20.015 -0.002 0.007 0.010 0.000
1782 4 15.790 14.116 14.272 -0.006 -0.011 -0.001 -0.000
1761 4 -3.142 12.448 12.116 -0.011 -0.015 0.007 -0.000
811 4 6.203 -2.691 7.027 -0.008 -0.006 -0.004 0.000
2402 4 -3.048 -1.148 21.912 -0.003 -0.004 0.002 -0.000
2205 4 0.748 15.752 16.089 -0.004 0.011 -0.001 -0.000
1605 4 0.677 -2.829 12.048 0.002 0.002 -0.005 -0.000
1613 4 8.087 -2.628 12.328 -0.005 0.006 0.006 -0.000
1302 4 15.728 6.729 9.994 0.003 0.004 0.012 -0.000
541 4 16.041 9.084 0.894 -0.000 0.002 -0.014 -0.000
1741 4 15.748 8.732 12.241 -0.003 -0.007 0.000 0.000
402 4 -2.947 -1.401 2.548 -0.003 -0.005 -0.007 0.000
15 4 9.885 -2.657 -0.837 0.001 0.001 0.003 0.000
137 4 12.383 8.630 -2.883 0.003 -0.000 -0.003 0.000
502 4 15.717 6.727 3.152 -0.005 -0.003 -0.005 -0.000
1361 4 -2.982 11.608 8.401 -0.003 0.009 -0.010 0.000
921 4 -3.079 8.572 4.915 -0.000 -0.003 -0.003 -0.000
1807 4 2.690 16.139 14.223 -0.005 0.010 -0.007 0.000
17 4 12.024 -2.650 -2.778 -0.002 -0.003 -0.006 -0.000
88 4 3.219 6.671 -2.945 0.004 -0.002 0.004 0.000
96 4 10.085 6.773 -2.847 -0.005 -0.012 -0.009 0.000
85 4 0.926 4.857 -2.718 0.011 -0.013 0.003 -0.000
2521 4 -3.032 8.628 19.388 -0.010 0.003 -0.007 -0.000
841 4 -2.755 1.192 4.582 -0.012 0.008 0.010 -0.000
2522 4 -2.901 10.183 21.757 -0.001 -0.001 0.001 -0.000
2213 4 7.906 16.166 15.825 -0.006 0.007 -0.009 -0.000
2211 4 6.576 15.890 17.985 0.004 0.001 -0.003 0.000