ITEM: TIMESTEP
44000
ITEM: NUMBER OF ATOMS
32000
ITEM: BOX BOUNDS pp pp pp
-3.041774 73.521774
-2.911475 73.391475
-3.068554 73.548554
ITEM: ATOMS id type x y z vx vy vz q
6 4 0.696 -1.180 -1.262 -0.006 0.001 -0.006 0.000
10 4 4.477 -0.680 -1.389 -0.003 0.011 0.000 0.000
14 4 8.941 -1.167 -0.967 -0.003 0.000 -0.002 0.000
18 4 12.350 -1.226 -1.260 -0.000 -0.010 -0.003 0.000
43 4 -1.614 1.148 -0.888 -0.002 0.001 0.006 -0.000
46 4 1.020 3.209 -1.308 0.008 -0.000 -0.000 0.000
47 4 2.739 0.901 -1.124 0.011 -0.002 0.003 0.000
50 4 4.147 2.752 -0.629 -0.000 0.014 -0.002 0.000
51 4 6.734 0.941 -0.882 0.008 0.005 -0.003 0.000
54 4 8.292 2.925 -1.022 -0.006 -0.001 0.001 -0.000
55 4 10.754 0.944 -1.267 0.005 -0.001 -0.009 -0.000
58 4 12.650 2.883 -1.139 -0.000 -0.007 -0.005 -0.000
59 4 14.095 0.774 -0.888 -0.006 -0.008 -0.001 0.000
83 4 -0.729 4.518 -1.096 0.000 0.010 -0.005 0.000
86 4 0.867 7.132 -1.447 0.006 -0.011 0.012 -0.000
87 4 2.664 5.335 -0.973 0.011 0.007 -0.013 -0.000
90 4 4.534 6.911 -1.076 -0.007 0.003 -0.004 -0.000
91 4 6.410 4.869 -0.884 0.001 -0.002 0.001 -0.000
94 4 8.751 6.803 -0.991 -0.006 0.002 0.001 -0.000
95 4 10.313 4.754 -0.847 -0.000 0.000 0.007 -0.000
98 4 12.011 7.266 -1.072 -0.001 -0.001 -0.004 -0.000
99 4 14.344 5.337 -1.087 -0.009 0.000 -0.007 -0.000
123 4 -0.912 9.011 -0.940 -0.009 0.006 -0.004 -0.000
126 4 0.646 10.993 -1.263 -0.004 0.001 0.004 0.000
127 4 3.037 8.751 -1.215 -0.009 -0.010 0.001 -0.000
130 4 4.871 10.365 -1.337 0.009 -0.004 0.004 -0.000
131 4 6.504 8.505 -1.276 -0.003 0.002 -0.001 0.000
134 4 8.720 10.639 -1.096 0.002 0.012 0.013 0.000
135 4 10.180 8.738 -1.270 -0.004 0.004 0.004 0.000
138 4 12.609 10.454 -1.201 -0.006 -0.006 -0.002 0.000
139 4 14.509 8.715 -1.177 -0.003 -0.007 -0.003 -0.000
163 4 -1.185 12.281 -1.290 -0.007 0.009 0.016 0.000
166 4 0.693 14.027 -1.134 -0.003 0.004 0.001 0.000
167 4 2.575 12.023 -0.780 0.008 0.008 -0.002 0.000
170 4 4.542 13.694 -0.556 -0.001 0.005 -0.004 0.000
171 4 6.806 12.171 -0.632 -0.008 -0.012 0.003 0.000
174 4 8.098 14.095 -0.794 0.000 0.011 -0.006 -0.000
175 4 10.239 12.613 -0.884 -0.010 0.003 0.002 0.000
178 4 12.601 14.507 -1.277 -0.001 -0.007 0.006 -0.000
179 4 14.422 12.032 -0.785 0.005 0.007 0.001 -0.000
404 4 -1.005 -0.961 0.690 -0.003 0.001 0.002 -0.000
406 4 0.796 -1.403 2.431 0.004 -0.007 0.002 -0.000
408 4 2.449 -1.174 0.694 0.008 -0.003 0.001 0.000
410 4 4.546 -0.905 2.712 0.001 -0.006 -0.004 -0.000
412 4 6.753 -1.281 0.650 -0.001 0.001 -0.002 0.000
414 4 8.828 -0.980 2.683 0.003 -0.006 -0.000 0.000
416 4 10.539 -0.935 1.049 0.006 -0.002 0.002 0.000
418 4 12.482 -1.509 3.027 -0.009 -0.003 -0.005 0.000
420 4 13.800 -1.160 1.115 -0.006 -0.003 -0.003 0.000
443 4 -1.052 0.655 2.697 -0.013 0.005 0.007 0.000
444 4 -1.116 2.890 0.889 -0.001 0.001 -0.007 0.000
445 4 0.627 0.804 0.573 -0.006 -0.006 -0.003 0.000
446 4 0.707 2.849 2.874 -0.004 0.000 -0.002 0.000
447 4 2.392 0.899 2.289 -0.007 0.002 0.002 0.000
448 4 2.220 2.986 0.960 0.003 0.009 0.001 0.000
449 4 4.571 0.591 0.719 0.006 -0.009 0.006 0.000
450 4 4.313 3.005 2.066 -0.004 -0.002 -0.004 0.000
451 4 6.399 0.856 2.673 -0.000 -0.008 0.001 0.000
452 4 6.492 2.705 0.902 -0.004 0.003 -0.000 -0.000
453 4 8.580 0.816 0.942 -0.007 0.002 0.008 0.000
454 4 8.498 2.908 2.054 -0.004 0.001 -0.008 -0.000
455 4 10.401 1.079 2.378 0.008 0.006 -0.002 0.000
456 4 10.614 2.725 0.511 0.000 -0.002 0.009 -0.000
457 4 12.279 0.764 0.835 -0.007 0.003 -0.006 0.000
458 4 12.442 2.568 2.528 -0.005 0.001 -0.007 -0.000
459 4 14.390 0.903 2.469 -0.012 0.003 -0.008 0.000
460 4 14.170 2.838 1.062 0.006 0.008 -0.005 -0.000
483 4 -1.125 5.019 2.858 0.004 0.003 -0.003 0.000
484 4 -0.705 7.025 0.230 -0.002 0.004 -0.002 -0.000
485 4 0.511 4.971 0.927 0.007 0.000 0.004 0.000
486 4 0.601 6.872 2.608 -0.000 0.005 -0.001 -0.000
487 4 2.467 4.864 2.603 0.011 -0.002 0.007 0.000
488 4 2.835 7.025 0.936 0.001 -0.004 -0.002 -0.000
489 4 4.753 5.088 0.478 -0.001 0.004 -0.003 -0.000
490 4 4.551 6.645 2.492 0.001 0.005 0.006 -0.000
491 4 6.152 4.830 2.461 -0.002 -0.008 -0.001 -0.000
492 4 6.602 6.721 0.615 0.012 0.001 0.003 -0.000
493 4 8.234 4.904 0.762 0.005 0.006 0.002 -0.000
494 4 8.222 6.853 2.550 -0.004 0.011 -0.003 -0.000
495 4 10.117 4.741 2.357 0.004 0.001 -0.003 -0.000
496 4 9.942 6.988 0.961 -0.002 -0.008 0.002 -0.000
497 4 12.067 5.353 0.572 0.008 0.009 0.003 -0.000
498 4 11.827 6.943 2.655 -0.010 -0.002 0.001 -0.000
499 4 13.920 5.030 2.409 -0.008 0.008 0.000 -0.000
500 4 14.144 7.373 1.196 0.008 0.006 -0.002 -0.000
523 4 -1.248 8.614 2.472 0.003 -0.003 0.005 -0.000
524 4 -1.166 10.731 0.763 0.005 -0.009 -0.008 -0.000
525 4 0.897 8.952 0.963 0.011 0.008 0.001 -0.000
526 4 0.282 10.504 2.626 -0.001 0.000 -0.007 0.000
527 4 2.512 8.608 3.057 0.002 -0.004 0.003 -0.000
528 4 2.931 10.154 0.820 0.004 0.002 0.005 -0.000
529 4 4.838 8.547 0.719 -0.003 -0.001 0.005 -0.000
530 4 4.595 10.239 2.646 -0.005 0.003 0.007 -0.000
531 4 6.447 8.819 3.032 0.002 0.003 -0.001 0.000
532 4 6.351 10.289 0.778 -0.015 -0.001 -0.006 0.000
533 4 8.389 8.612 0.648 0.004 -0.006 -0.009 0.000
534 4 8.329 10.322 2.691 0.010 -0.001 0.006 0.000
535 4 10.169 9.010 2.405 -0.007 0.006 0.002 -0.000
536 4 10.654 10.456 0.420 -0.002 -0.007 -0.008 0.000
537 4 12.300 8.788 0.986 -0.003 0.007 0.005 -0.000
538 4 12.256 10.328 2.868 -0.003 -0.010 -0.000 -0.000
539 4 14.101 8.838 3.095 0.001 0.003 0.003 0.000
540 4 14.114 10.438 1.039 -0.004 0.006 -0.009 0.000
563 4 -1.133 12.633 2.733 -0.001 0.002 0.002 0.000
564 4 -1.519 14.130 0.675 0.007 -0.004 -0.003 0.000
565 4 0.759 12.346 0.927 0.010 -0.001 -0.000 0.000
566 4 0.393 14.107 2.399 -0.003 0.007 -0.004 0.000
567 4 2.555 11.959 2.769 -0.009 0.005 0.000 0.000
568 4 2.620 14.132 0.769 0.002 -0.008 -0.004 0.000
569 4 4.663 12.134 1.038 0.001 0.001 -0.011 0.000
570 4 4.413 14.112 2.608 0.008 -0.013 -0.002 -0.000
571 4 6.633 12.059 2.936 0.005 -0.009 0.000 0.000
572 4 6.601 14.068 1.144 -0.002 0.006 -0.015 0.000
573 4 8.758 12.454 0.855 0.006 -0.002 0.003 0.000
574 4 8.445 14.184 2.909 -0.005 -0.016 0.005 0.000
575 4 10.256 12.051 3.030 -0.008 0.009 -0.005 -0.000
576 4 10.337 14.668 0.904 0.004 0.003 -0.000 -0.000
577 4 12.371 12.507 0.263 -0.020 -0.003 -0.010 -0.000
578 4 12.313 14.011 2.908 0.004 -0.001 -0.001 -0.000
579 4 14.157 12.381 2.926 -0.003 -0.006 -0.001 -0.000
580 4 14.262 14.230 0.901 0.004 0.006 0.007 -0.000
804 4 -1.350 -1.484 4.889 -0.004 -0.001 0.002 -0.000
806 4 0.698 -1.393 6.364 -0.007 0.013 0.009 -0.000
808 4 2.421 -1.374 4.620 -0.002 0.004 -0.000 -0.000
810 4 4.334 -0.960 6.644 0.002 -0.012 -0.002 -0.000
812 4 6.239 -0.869 4.728 -0.006 0.016 0.000 -0.000
814 4 8.413 -1.019 6.161 -0.005 -0.001 0.006 -0.000
816 4 10.251 -0.888 4.569 -0.014 -0.002 0.006 0.000
818 4 12.238 -0.521 6.450 0.000 -0.002 -0.003 -0.000
820 4 14.313 -0.983 4.469 -0.009 0.006 -0.006 -0.000
843 4 -0.868 0.927 6.134 -0.002 0.004 0.007 -0.000
844 4 -1.006 2.834 4.512 0.002 -0.005 0.005 0.000
845 4 0.822 0.655 4.315 0.005 -0.007 -0.001 -0.000
846 4 1.040 2.806 6.285 -0.004 0.002 0.013 -0.000
847 4 2.439 1.019 6.634 0.009 -0.004 0.001 -0.000
848 4 2.658 2.351 4.273 0.001 0.010 0.003 0.000
849 4 4.069 0.399 4.772 -0.001 -0.002 0.003 -0.000
850 4 4.266 2.753 6.197 0.000 0.002 -0.008 0.000
851 4 6.511 1.155 6.117 -0.012 0.007 -0.002 0.000
852 4 5.486 2.950 4.058 0.005 -0.001 -0.006 0.000
853 4 7.977 1.371 4.246 0.002 -0.011 -0.006 0.000
854 4 8.644 2.905 6.643 0.002 0.002 0.001 -0.000
855 4 10.253 1.201 6.081 0.004 -0.002 -0.003 -0.000
856 4 10.176 2.813 4.138 -0.005 0.004 -0.005 -0.000
857 4 12.303 1.128 4.418 -0.003 -0.005 0.007 -0.000
858 4 12.494 2.645 6.540 0.001 0.011 0.007 -0.000
859 4 14.416 1.117 6.030 -0.000 0.005 0.001 -0.000
860 4 14.337 2.971 4.412 -0.007 -0.002 0.003 -0.000
883 4 -1.293 4.980 6.158 -0.009 -0.007 0.010 0.000
884 4 -1.332 6.760 4.796 0.004 0.002 0.007 0.000
885 4 0.828 4.967 4.282 -0.004 0.004 -0.001 0.000
886 4 0.630 7.018 6.498 0.003 0.002 0.008 0.000
887 4 2.771 4.742 6.139 -0.002 -0.002 0.002 0.000
888 4 3.084 6.563 4.554 0.006 -0.001 0.004 0.000
889 4 4.537 4.856 4.346 0.002 -0.004 -0.003 0.000
890 4 4.819 6.499 6.618 0.007 -0.005 -0.004 0.000
891 4 6.594 4.641 6.619 -0.002 0.009 0.004 0.000
892 4 6.163 6.868 4.498 -0.001 0.002 -0.000 -0.000
893 4 7.818 4.428 4.338 0.001 -0.001 0.011 -0.000
894 4 8.111 6.705 6.362 0.009 -0.002 0.005 0.000
895 4 10.325 4.596 6.482 0.000 -0.008 0.002 -0.000
896 4 10.229 6.491 4.634 -0.003 -0.012 0.004 0.000
897 4 12.128 4.254 4.617 0.001 0.002 -0.011 -0.000
898 4 12.405 6.378 6.531 -0.002 0.003 0.007 0.000
899 4 14.247 4.704 6.137 0.007 0.008 -0.003 -0.000
900 4 13.734 6.674 4.282 0.005 0.003 0.009 0.000
923 4 -1.357 8.523 6.881 0.000 -0.001 -0.006 0.000
924 4 -1.203 10.907 4.726 0.002 0.002 -0.004 0.000
925 4 -0.230 8.687 4.736 0.003 0.007 -0.000 0.000
926 4 0.602 10.009 6.843 -0.005 0.009 -0.000 0.000
927 4 2.798 8.216 6.464 -0.001 0.010 0.009 0.000
928 4 2.406 10.416 4.684 0.002 -0.002 0.003 0.000
929 4 4.204 8.690 4.713 0.006 -0.011 -0.005 -0.000
930 4 4.468 10.355 6.690 0.003 0.002 -0.002 0.000
931 4 6.360 8.340 6.605 -0.002 -0.005 -0.003 0.000
932 4 6.342 10.613 4.850 0.006 -0.005 0.003 0.000
933 4 8.345 8.390 4.561 -0.007 -0.006 0.012 0.000
934 4 8.610 10.295 6.704 -0.003 0.001 -0.001 0.000
935 4 10.021 8.221 6.371 0.002 -0.001 -0.003 0.000
936 4 10.235 10.205 4.756 -0.002 0.004 -0.003 -0.000
937 4 11.971 8.690 4.679 -0.005 0.010 -0.004 0.000
938 4 12.764 10.426 6.532 0.003 -0.011 0.001 0.000
939 4 14.050 8.266 6.420 0.004 0.009 0.005 0.000
940 4 14.240 10.174 4.835 -0.000 -0.003 -0.003 0.000
963 4 -1.165 12.925 6.721 0.004 0.010 -0.009 0.000
964 4 -1.318 14.353 4.536 -0.004 -0.004 -0.005 0.000
965 4 1.054 12.275 4.622 -0.007 0.011 0.007 0.000
966 4 1.098 14.393 6.607 -0.019 0.001 0.002 -0.000
967 4 2.427 11.815 7.220 -0.001 0.003 -0.004 -0.000
968 4 2.609 14.477 4.488 -0.000 0.011 0.002 -0.000
969 4 4.639 12.512 4.458 -0.005 0.005 0.009 -0.000
970 4 4.708 14.059 6.308 0.016 0.002 -0.004 -0.000
971 4 6.663 12.252 6.567 -0.013 0.005 0.007 0.000
972 4 6.818 13.947 4.605 0.001 -0.001 -0.009 0.000
973 4 8.452 12.123 4.587 0.005 0.014 -0.001 0.000
974 4 8.547 14.255 6.423 0.004 -0.001 -0.005 0.000
975 4 10.210 12.113 6.769 0.003 -0.014 -0.000 0.000
976 4 10.163 13.809 4.648 0.008 -0.002 0.006 0.000
977 4 12.372 12.210 4.807 0.000 0.001 0.008 -0.000
978 4 12.217 14.164 6.614 0.004 -0.011 0.001 -0.000
979 4 13.995 12.286 6.503 -0.007 -0.002 0.006 -0.000
980 4 14.231 14.126 4.638 -0.001 0.006 -0.010 0.000
1204 4 -1.126 -0.999 8.121 0.003 0.005 0.001 -0.000
1206 4 0.253 -1.182 10.421 -0.004 -0.009 0.003 0.000
1208 4 2.582 -0.566 8.371 0.006 -0.001 -0.002 -0.000
1210 4 4.296 -1.151 10.189 -0.002 -0.015 -0.002 0.000
1212 4 6.189 -0.703 8.328 0.010 0.005 0.000 0.000
1214 4 8.452 -1.095 10.203 -0.000 0.001 0.002 -0.000
1216 4 10.222 -0.584 8.628 0.002 0.006 -0.001 -0.000
1218 4 11.892 -1.376 10.209 -0.007 0.010 -0.005 0.000
1220 4 14.559 -0.654 8.333 -0.006 -0.001 0.002 -0.000
1243 4 -0.775 0.861 10.146 0.003 -0.001 0.004 -0.000
1244 4 -0.995 3.046 7.743 0.000 0.005 -0.000 -0.000
1245 4 0.473 0.806 8.125 0.006 0.001 0.002 -0.000
1246 4 1.092 2.845 10.285 0.004 0.002 -0.010 -0.000
1247 4 2.542 0.686 10.633 -0.003 -0.002 -0.004 -0.000
1248 4 2.554 2.320 8.545 -0.002 -0.004 -0.000 -0.000
1249 4 4.635 0.937 8.241 0.003 -0.007 0.004 0.000
1250 4 4.282 2.890 10.620 -0.011 -0.011 0.003 -0.000
1251 4 6.196 0.972 10.369 0.008 0.002 0.000 0.000
1252 4 6.436 2.757 8.695 -0.003 0.005 0.002 0.000
1253 4 8.379 0.747 8.173 0.002 -0.006 -0.012 -0.000
1254 4 8.397 2.468 10.167 -0.005 -0.006 -0.002 -0.000
1255 4 10.523 1.016 10.493 0.004 -0.010 0.002 -0.000
1256 4 10.634 2.635 8.574 -0.001 0.005 -0.001 -0.000
1257 4 12.618 0.607 8.610 -0.008 -0.011 -0.001 -0.000
1258 4 12.380 2.821 10.495 0.004 -0.006 0.000 -0.000
1259 4 14.391 1.088 10.485 0.001 0.003 -0.007 -0.000
1260 4 14.104 3.563 8.415 -0.002 -0.003 -0.003 -0.000
1283 4 -1.078 4.664 10.100 0.003 0.002 0.015 -0.000
1284 4 -1.281 6.684 7.870 0.004 -0.002 -0.001 0.000
1285 4 0.622 4.882 7.656 -0.013 -0.004 -0.010 -0.000
1286 4 1.079 6.317 10.188 -0.003 0.000 0.002 -0.000
1287 4 2.705 4.835 10.230 -0.003 -0.004 -0.004 -0.000
1288 4 2.624 6.771 8.244 0.002 -0.001 -0.006 -0.000
1289 4 4.605 4.299 8.508 -0.002 0.003 -0.005 -0.000
1290 4 4.628 6.663 9.978 0.005 -0.009 0.006 -0.000
1291 4 6.602 4.618 10.404 -0.005 -0.003 -0.001 0.000
1292 4 6.663 6.397 8.532 -0.008 0.001 0.000 -0.000
1293 4 8.707 4.466 8.454 -0.010 0.005 0.001 -0.000
1294 4 8.445 6.788 10.472 -0.000 0.003 -0.001 0.000
1295 4 10.321 4.845 10.596 0.006 -0.002 0.001 -0.000
1296 4 10.295 6.755 8.498 -0.004 -0.001 0.006 0.000
1297 4 11.876 4.642 8.379 -0.016 -0.012 0.002 -0.000
1298 4 12.312 6.533 10.526 0.002 -0.005 -0.000 0.000
1299 4 14.132 4.792 10.570 0.012 -0.000 0.008 0.000
1300 4 14.246 6.387 8.190 -0.003 -0.007 0.002 0.000
1323 4 -1.281 8.284 10.125 -0.002 -0.005 -0.011 -0.000
1324 4 -1.208 10.445 8.791 -0.000 0.005 -0.004 -0.000
1325 4 0.789 8.226 8.778 -0.002 0.003 0.001 -0.000
1326 4 1.101 10.337 10.314 0.008 0.001 0.002 -0.000
1327 4 2.873 8.398 10.397 -0.007 0.011 0.002 -0.000
1328 4 2.601 9.948 8.454 0.009 -0.002 0.001 -0.000
1329 4 4.772 8.441 8.585 -0.001 0.001 -0.008 0.000
1330 4 4.923 10.384 10.277 0.012 0.006 -0.004 0.000
1331 4 6.739 8.379 10.424 -0.002 -0.002 -0.001 0.000
1332 4 6.421 10.456 8.100 0.013 -0.007 0.006 0.000
1333 4 8.586 8.361 8.573 0.008 0.011 -0.007 0.000
1334 4 8.094 10.472 10.130 -0.006 0.004 0.003 0.000
1335 4 10.434 8.067 10.658 0.014 -0.004 -0.006 0.000
1336 4 10.323 10.623 8.791 0.002 0.005 -0.003 0.000
1337 4 12.218 8.671 8.167 -0.005 0.005 -0.002 0.000
1338 4 12.028 10.080 10.312 0.012 -0.009 -0.014 -0.000
1339 4 14.060 8.667 10.270 -0.004 -0.010 -0.002 0.000
1340 4 14.416 10.772 8.638 0.007 0.001 0.003 -0.000
1363 4 -0.995 12.562 11.056 -0.005 -0.006 0.008 -0.000
1364 4 -1.464 14.617 8.768 0.005 0.018 -0.001 -0.000
1365 4 0.443 12.466 8.755 0.002 -0.003 -0.008 -0.000
1366 4 0.530 14.511 10.577 -0.002 -0.007 0.002 -0.000
1367 4 2.797 12.243 10.232 0.004 -0.006 0.000 -0.000
1368 4 2.855 14.185 8.646 0.009 0.005 -0.002 0.000
1369 4 4.935 12.498 8.648 0.008 -0.004 0.010 0.000
1370 4 4.795 14.030 10.644 0.005 0.007 -0.004 0.000
1371 4 6.754 12.425 10.412 -0.004 0.007 -0.008 0.000
1372 4 6.728 14.170 8.293 -0.007 0.010 -0.004 0.000
1373 4 8.556 12.347 8.465 0.001 -0.015 -0.013 0.000
1374 4 8.748 14.229 10.447 0.012 -0.001 0.001 -0.000
1375 4 10.154 12.018 10.482 -0.008 -0.003 -0.001 -0.000
1376 4 10.251 14.067 8.488 -0.001 0.002 -0.008 0.000
1377 4 12.258 12.195 8.555 0.007 -0.004 0.005 0.000
1378 4 12.129 14.083 10.385 0.006 0.014 -0.002 -0.000
1379 4 14.315 12.358 10.365 0.005 -0.000 -0.005 -0.000
1380 4 14.075 14.337 8.785 0.001 -0.008 0.008 -0.000
1604 4 -1.052 -0.794 12.288 -0.004 0.004 0.002 0.000
1606 4 0.774 -0.823 14.145 0.001 -0.002 -0.015 -0.000
1608 4 2.855 -1.154 12.264 0.003 0.003 -0.012 -0.000
1610 4 4.670 -0.990 14.094 0.001 -0.013 -0.008 -0.000
1612 4 6.426 -0.891 11.898 -0.014 0.006 -0.002 0.000
1614 4 7.905 -0.822 14.045 0.004 0.009 0.005 -0.000
1616 4 10.155 -1.111 11.701 -0.004 0.009 -0.005 -0.000
1618 4 11.908 -1.141 13.442 0.013 0.013 -0.008 -0.000
1620 4 14.206 -0.996 12.445 -0.006 -0.000 -0.001 -0.000
1643 4 -0.845 1.205 14.244 0.013 0.005 0.003 0.000
1644 4 -0.744 2.917 12.055 -0.003 0.002 0.007 0.000
1645 4 0.816 0.822 12.298 -0.005 -0.012 0.008 0.000
1646 4 0.541 3.005 14.139 0.003 -0.005 0.003 0.000
1647 4 2.719 0.841 13.950 0.004 -0.005 -0.001 -0.000
1648 4 2.570 3.149 12.535 -0.002 0.002 -0.018 -0.000
1649 4 4.341 0.683 12.270 0.007 -0.004 -0.007 0.000
1650 4 4.757 2.529 14.374 0.004 -0.007 0.004 -0.000
1651 4 6.431 0.959 13.525 0.006 -0.012 0.003 0.000
1652 4 6.306 3.153 12.252 0.002 0.008 -0.012 0.000
1653 4 8.136 1.021 11.978 0.009 0.009 0.004 0.000
1654 4 8.173 2.763 13.961 0.001 0.000 -0.001 0.000
1655 4 10.172 0.703 13.783 -0.010 -0.001 0.000 -0.000
1656 4 10.531 2.956 12.462 0.004 0.004 0.003 -0.000
1657 4 12.451 0.867 12.019 -0.002 -0.004 -0.011 -0.000
1658 4 12.036 2.613 14.523 -0.008 -0.006 0.005 -0.000
1659 4 13.757 0.530 14.157 0.001 0.008 -0.000 -0.000
1660 4 14.184 2.528 12.574 -0.007 -0.006 0.002 0.000
1683 4 -1.167 4.734 13.781 -0.006 0.003 0.003 0.000
1684 4 -1.248 6.490 12.028 -0.012 0.001 -0.002 0.000
1685 4 1.077 5.103 12.494 -0.006 -0.001 0.006 0.000
1686 4 1.047 7.169 14.216 0.009 0.010 -0.001 0.000
1687 4 3.087 5.036 14.019 0.005 -0.010 -0.001 -0.000
1688 4 3.101 7.027 12.273 -0.008 -0.002 0.007 -0.000
1689 4 4.647 4.865 12.059 0.008 -0.012 -0.003 -0.000
1690 4 4.581 6.968 14.182 0.009 0.001 -0.002 -0.000
1691 4 6.011 4.899 14.122 0.000 0.000 -0.007 -0.000
1692 4 6.578 6.434 12.523 -0.012 0.001 0.002 0.000
1693 4 8.344 4.670 12.344 0.003 -0.001 -0.007 0.000
1694 4 8.034 6.154 14.370 -0.012 0.003 -0.004 0.000
1695 4 10.187 4.896 14.171 -0.003 -0.001 -0.002 0.000
1696 4 10.272 6.561 12.360 -0.014 0.012 -0.003 0.000
1697 4 12.161 4.955 12.325 -0.004 -0.004 0.004 0.000
1698 4 12.462 6.513 14.506 0.003 0.004 -0.000 0.000
1699 4 14.169 4.659 14.040 -0.005 -0.020 0.001 0.000
1700 4 14.318 6.424 12.484 0.001 -0.002 0.008 0.000
1723 4 -1.016 8.505 14.364 -0.006 0.011 0.001 0.000
1724 4 -1.379 10.450 12.585 -0.005 0.009 0.007 -0.000
1725 4 0.817 8.446 11.962 0.002 0.002 -0.001 -0.000
1726 4 0.820 10.038 14.386 -0.007 -0.000 -0.008 -0.000
1727 4 3.033 8.839 14.498 0.003 0.003 0.004 -0.000
1728 4 2.675 10.772 12.540 0.008 0.007 -0.003 -0.000
1729 4 4.674 8.954 12.289 0.009 -0.012 0.012 -0.000
1730 4 4.464 10.655 14.389 -0.002 -0.008 -0.008 -0.000
1731 4 6.585 8.796 13.929 0.008 -0.001 0.008 -0.000
1732 4 6.716 10.603 12.231 0.003 -0.001 0.004 0.000
1733 4 8.590 8.149 12.752 0.006 0.001 0.005 0.000
1734 4 8.618 10.216 14.261 0.006 -0.008 -0.001 -0.000
1735 4 10.356 7.738 14.332 0.002 -0.002 0.007 0.000
1736 4 10.929 9.694 12.430 0.006 -0.002 -0.003 -0.000
1737 4 12.540 8.045 12.534 0.000 -0.011 -0.010 0.000
1738 4 12.255 10.172 14.169 -0.002 -0.002 0.001 0.000
1739 4 14.369 8.266 14.300 0.005 0.005 0.009 0.000
1740 4 14.158 10.080 12.461 0.004 0.000 -0.000 0.000
1763 4 -1.219 12.416 14.053 0.002 0.002 -0.000 -0.000
1764 4 -1.366 14.376 12.634 -0.005 0.003 0.003 -0.000
1765 4 0.718 12.162 12.332 -0.002 0.010 0.004 -0.000
1766 4 0.796 14.540 14.112 0.003 0.004 -0.006 -0.000
1767 4 2.685 12.912 14.400 0.006 0.004 0.001 -0.000
1768 4 2.193 14.119 12.293 0.000 -0.005 0.012 0.000
1769 4 4.728 12.403 12.410 -0.004 0.002 0.007 0.000
1770 4 4.879 14.266 14.263 -0.001 0.009 0.004 -0.000
1771 4 6.454 12.032 14.294 -0.001 0.003 0.001 -0.000
1772 4 6.531 14.165 12.544 0.003 0.006 -0.002 -0.000
1773 4 8.538 12.433 12.497 -0.000 -0.003 -0.000 -0.000
1774 4 8.972 14.100 14.644 -0.007 0.005 0.012 -0.000
1775 4 10.486 12.228 14.266 -0.004 -0.004 -0.011 -0.000
1776 4 10.273 14.541 12.545 -0.006 -0.009 0.001 -0.000
1777 4 12.174 12.024 12.091 -0.001 0.008 0.005 -0.000
1778 4 12.518 13.957 14.360 -0.001 -0.003 -0.004 -0.000
1779 4 14.122 11.929 14.347 -0.009 -0.009 -0.004 0.000
1780 4 14.054 14.255 12.336 0.005 -0.004 -0.003 -0.000
2004 4 -1.261 -1.248 16.089 0.008 0.001 0.005 0.000
2006 4 0.181 -0.969 18.289 0.006 -0.000 -0.007 -0.000
2008 4 2.720 -1.063 15.903 0.001 -0.006 -0.000 -0.000
2010 4 4.224 -0.890 17.878 0.004 -0.006 0.003 0.000
2012 4 5.827 -0.991 15.984 -0.003 0.003 0.007 -0.000
2014 4 8.097 -1.264 18.368 -0.011 -0.004 -0.005 -0.000
2016 4 10.180 -0.804 15.996 0.005 -0.004 0.002 -0.000
2018 4 12.132 -1.143 17.909 0.008 0.002 -0.008 -0.000
2020 4 14.230 -1.061 16.590 0.003 -0.008 0.005 -0.000
2043 4 -1.442 0.872 18.082 -0.000 -0.006 0.002 -0.000
2044 4 -1.143 2.819 16.283 0.007 0.008 -0.003 0.000
2045 4 0.652 0.644 16.661 0.008 0.002 -0.007 -0.000
2046 4 0.759 2.551 18.356 -0.002 -0.005 0.012 -0.000
2047 4 2.327 0.466 18.136 0.004 -0.010 -0.005 -0.000
2048 4 2.368 2.769 15.571 -0.005 -0.001 0.004 -0.000
2049 4 4.359 1.036 16.138 -0.002 0.001 0.005 -0.000
2050 4 4.228 2.779 18.008 -0.006 0.000 0.006 -0.000
2051 4 6.708 0.771 17.950 0.005 0.007 0.009 -0.000
2052 4 6.516 2.924 16.050 -0.011 -0.008 0.006 0.000
2053 4 8.306 0.953 15.854 0.001 0.004 -0.010 -0.000
2054 4 8.493 2.966 18.109 -0.006 -0.001 -0.004 -0.000
2055 4 10.174 0.915 18.211 -0.002 -0.004 0.003 -0.000
2056 4 10.182 3.076 16.142 0.006 0.000 -0.007 0.000
2057 4 11.928 0.946 16.336 -0.004 -0.004 -0.001 -0.000
2058 4 12.530 2.900 17.853 -0.004 -0.005 0.002 -0.000
2059 4 13.648 0.517 18.236 -0.001 -0.005 0.011 -0.000
2060 4 14.236 2.407 15.969 -0.002 0.008 -0.000 0.000
2083 4 -0.735 4.793 17.993 0.012 0.003 -0.003 -0.000
2084 4 -1.054 6.592 15.713 -0.000 -0.002 -0.001 0.000
2085 4 1.239 5.223 15.953 -0.001 0.003 0.004 0.000
2086 4 1.405 6.795 18.085 0.001 -0.001 -0.003 0.000
2087 4 2.514 4.875 18.337 0.001 0.006 -0.006 -0.000
2088 4 3.034 7.068 15.852 0.008 -0.004 0.010 -0.000
2089 4 4.623 4.592 15.837 0.003 -0.007 0.015 -0.000
2090 4 4.568 6.469 17.929 0.007 0.009 0.005 -0.000
2091 4 6.093 4.393 18.203 0.006 -0.008 0.002 -0.000
2092 4 6.598 6.575 16.445 -0.001 -0.010 -0.005 -0.000
2093 4 8.438 4.822 16.198 -0.005 -0.007 -0.003 0.000
2094 4 8.114 6.216 18.316 -0.012 -0.000 -0.006 -0.000
2095 4 10.223 4.500 18.239 -0.005 0.005 0.002 -0.000
2096 4 10.024 6.545 16.372 -0.013 -0.011 0.002 0.000
2097 4 12.226 4.561 16.143 0.007 -0.003 -0.009 0.000
2098 4 11.914 6.629 18.108 -0.008 -0.000 -0.003 -0.000
2099 4 14.028 4.823 18.099 0.003 -0.004 -0.005 0.000
2100 4 14.357 6.781 16.163 0.003 0.002 -0.000 0.000
2123 4 -1.281 8.505 17.923 0.003 -0.002 0.002 0.000
2124 4 -1.409 10.642 16.105 -0.008 0.000 -0.006 0.000
2125 4 0.569 8.451 16.520 0.011 0.008 -0.011 0.000
2126 4 0.560 10.593 18.245 0.006 0.001 0.002 0.000
2127 4 2.716 9.157 18.210 0.005 -0.002 -0.006 -0.000
2128 4 2.980 10.208 16.207 0.006 -0.005 0.009 -0.000
2129 4 4.721 8.690 16.015 0.001 0.004 0.002 -0.000
2130 4 4.868 10.493 18.371 0.003 0.009 -0.006 -0.000
2131 4 6.403 8.044 18.234 0.006 -0.000 -0.012 -0.000
2132 4 6.691 10.187 16.270 -0.006 -0.001 0.006 -0.000
2133 4 8.323 8.310 16.012 -0.007 0.003 -0.001 0.000
2134 4 7.876 9.829 18.163 0.002 -0.006 0.009 -0.000
2135 4 10.147 8.878 18.187 0.001 -0.001 -0.004 -0.000
2136 4 10.621 10.191 16.050 0.009 0.001 -0.002 -0.000
2137 4 12.295 8.183 16.000 0.003 0.005 0.002 0.000
2138 4 12.341 10.432 18.136 0.008 -0.010 0.008 -0.000
2139 4 13.845 8.396 18.382 -0.008 0.001 -0.003 -0.000
2140 4 14.069 10.139 16.151 -0.003 -0.002 -0.004 0.000
2163 4 -1.332 12.278 17.726 0.001 -0.001 0.006 0.000
2164 4 -1.600 14.220 16.248 0.008 -0.007 -0.009 0.000
2165 4 0.608 12.243 15.936 0.002 0.006 -0.004 -0.000
2166 4 -0.105 14.106 18.270 0.004 -0.013 -0.005 0.000
2167 4 2.809 12.095 18.084 -0.001 -0.001 0.003 -0.000
2168 4 2.939 14.340 16.423 -0.003 -0.001 -0.007 -0.000
2169 4 4.654 12.408 16.395 -0.002 -0.002 -0.002 -0.000
2170 4 4.800 14.046 18.406 -0.007 0.005 0.005 0.000
2171 4 6.886 12.217 17.569 -0.001 0.004 0.001 -0.000
2172 4 6.758 14.339 16.179 -0.005 -0.010 -0.014 -0.000
2173 4 8.644 12.374 16.086 0.001 -0.001 0.001 -0.000
2174 4 8.294 14.301 18.300 0.006 0.001 -0.007 0.000
2175 4 10.418 12.491 17.896 -0.006 0.000 -0.006 -0.000
2176 4 10.665 14.208 16.197 0.004 -0.001 -0.009 -0.000
2177 4 12.120 12.073 15.854 0.019 -0.005 0.005 0.000
2178 4 12.430 14.364 18.185 -0.002 0.008 0.003 0.000
2179 4 14.094 12.275 18.579 0.015 0.001 -0.002 0.000
2180 4 14.207 13.782 16.596 0.006 0.004 -0.003 0.000
2404 4 -1.304 -1.271 20.057 0.001 0.003 -0.002 0.000
2408 4 2.469 -1.019 20.215 -0.006 -0.004 -0.001 0.000
2412 4 6.150 -0.955 19.971 -0.006 -0.001 -0.012 0.000
2416 4 10.240 -1.327 20.162 -0.003 0.005 0.006 -0.000
2420 4 14.157 -0.666 19.980 -0.004 0.007 0.003 -0.000
2444 4 -1.346 2.707 19.869 0.005 -0.003 0.002 -0.000
2445 4 0.612 0.886 20.314 -0.003 0.008 -0.003 -0.000
2448 4 2.568 2.641 19.931 0.012 -0.004 0.013 -0.000
2449 4 4.600 0.596 19.687 0.002 -0.000 -0.001 0.000
2452 4 6.829 2.393 19.990 -0.011 0.002 0.005 -0.000
2453 4 8.524 0.643 20.189 0.005 0.004 -0.005 -0.000
2456 4 10.333 2.790 20.102 0.008 -0.004 0.006 -0.000
2457 4 11.971 0.681 20.029 0.002 0.004 0.003 -0.000
2460 4 14.014 2.919 19.941 0.004 -0.005 -0.002 -0.000
2484 4 -1.349 6.877 19.871 0.003 -0.006 0.002 -0.000
2485 4 0.578 4.769 20.065 0.008 0.003 0.006 -0.000
2488 4 2.460 6.539 20.207 -0.009 0.008 0.002 0.000
2489 4 4.266 4.347 20.156 0.019 0.002 0.006 -0.000
2492 4 6.379 6.133 20.826 0.001 -0.009 0.011 -0.000
2493 4 8.423 4.672 20.441 -0.005 -0.002 -0.003 -0.000
2496 4 10.370 6.526 19.780 0.006 -0.002 -0.001 -0.000
2497 4 12.095 4.432 20.269 -0.012 0.001 -0.008 -0.000
2500 4 14.131 6.594 20.196 0.002 -0.005 -0.004 0.000
2524 4 -1.575 10.604 19.829 -0.008 -0.005 -0.005 0.000
2525 4 0.499 8.633 19.577 -0.003 -0.001 0.005 0.000
2528 4 2.409 10.876 20.179 0.000 0.001 0.008 -0.000
2529 4 4.419 8.452 20.070 0.000 -0.007 -0.011 -0.000
2532 4 6.698 10.399 20.324 0.006 0.005 -0.002 -0.000
2533 4 8.190 8.239 20.044 -0.000 0.010 0.003 -0.000
2536 4 10.247 10.642 19.900 -0.000 0.005 0.002 -0.000
2537 4 12.401 8.326 20.272 -0.001 -0.006 0.010 -0.000
2540 4 13.981 10.324 20.016 0.000 -0.009 0.008 -0.000
2564 4 -1.602 14.277 19.917 0.000 -0.004 -0.002 -0.000
2565 4 0.244 12.228 19.840 -0.013 -0.011 0.005 -0.000
2568 4 2.382 14.193 19.761 0.007 0.013 -0.000 -0.000
2569 4 4.383 12.528 20.382 -0.004 0.004 0.009 -0.000
2572 4 6.428 14.149 20.198 0.005 0.004 -0.002 0.000
2573 4 8.785 12.456 20.497 0.001 -0.003 -0.000 -0.000
2576 4 10.550 14.535 19.737 0.013 -0.002 -0.015 -0.000
2577 4 12.238 12.649 19.897 -0.006 -0.007 -0.002 -0.000
2580 4 14.205 14.391 20.071 0.006 -0.001 -0.005 0.000
2575 4 10.554 12.368 21.693 -0.005 0.010 0.006 -0.000
2579 4 13.944 12.439 21.716 0.001 -0.004 0.011 -0.000
2451 4 6.559 0.559 21.961 0.005 -0.004 0.003 0.000
2450 4 4.912 2.361 22.038 0.001 0.004 0.003 0.000
2574 4 8.175 14.223 22.266 0.001 0.007 0.008 -0.000
2578 4 12.269 14.697 21.730 -0.001 -0.001 0.009 -0.000
2530 4 4.486 10.824 22.166 -0.003 -0.003 0.003 -0.000
2447 4 2.911 1.006 21.773 -0.005 -0.000 -0.001 0.000
2414 4 8.308 -1.315 21.878 0.004 0.001 0.010 -0.000
2459 4 14.337 0.889 21.951 0.007 -0.001 -0.005 0.000
2498 4 11.968 6.551 21.996 -0.007 0.002 -0.004 -0.000
2571 4 6.585 12.422 22.101 -0.004 0.003 0.002 -0.000
2567 4 2.609 12.235 22.424 -0.006 0.001 0.003 -0.000
2486 4 0.827 7.252 22.109 -0.005 -0.004 -0.010 0.000
2490 4 4.120 6.660 22.161 0.004 0.006 0.004 -0.000
2443 4 -1.372 1.112 21.810 -0.004 -0.000 -0.003 -0.000
2570 4 4.488 14.398 22.473 -0.001 0.001 0.004 0.000
2523 4 -1.517 8.720 21.928 0.005 -0.004 -0.001 0.000
2535 4 10.188 8.827 21.491 -0.008 0.001 -0.004 -0.000
2418 4 12.263 -1.047 21.968 -0.005 -0.003 -0.002 0.000
2566 4 0.597 14.039 21.860 0.001 -0.011 0.004 -0.000
2495 4 10.204 4.579 22.205 0.002 0.008 0.010 -0.000
2538 4 12.333 10.724 21.800 0.006 -0.007 0.008 -0.000
2455 4 10.383 0.832 21.876 0.000 -0.000 -0.003 -0.000
2491 4 6.424 4.230 22.220 -0.006 -0.004 -0.005 -0.000
2531 4 6.474 8.559 22.078 -0.008 0.006 0.007 -0.000
2534 4 8.270 10.634 21.984 0.006 -0.007 0.014 -0.000
2494 4 8.408 6.574 22.022 0.005 -0.004 -0.002 -0.000
2563 4 -1.473 12.553 21.743 0.006 -0.004 0.003 -0.000
2454 4 8.763 2.548 21.964 -0.008 -0.003 0.005 -0.000
2499 4 13.849 4.617 21.862 -0.006 0.002 -0.002 0.000
2458 4 12.153 2.563 21.898 -0.001 -0.002 -0.004 0.000
2406 4 0.743 -1.219 22.063 -0.011 -0.001 0.005 -0.000
2410 4 4.697 -0.878 21.892 0.002 -0.004 0.008 0.000
2182 4 15.939 14.723 18.306 -0.003 0.007 -0.005 0.000
2526 4 0.238 10.415 21.710 0.002 0.006 0.007 0.000
2141 4 16.072 8.697 15.932 -0.000 -0.008 -0.002 0.000
413 4 8.864 -2.888 0.939 -0.004 -0.006 -0.004 0.000
2446 4 0.872 2.988 21.750 0.004 -0.001 0.006 -0.000
1407 4 2.784 15.844 10.285 -0.007 0.007 -0.002 0.000
2487 4 2.641 4.692 22.310 0.002 0.005 0.013 0.000
2483 4 -1.435 4.707 21.861 -0.001 0.003 0.005 0.000
1809 4 4.377 15.930 12.607 0.004 0.001 0.013 0.000
2407 4 2.881 -2.875 21.990 -0.006 0.003 0.008 -0.000
2527 4 2.602 8.605 22.188 -0.001 0.000 -0.005 0.000
415 4 10.477 -2.859 2.904 0.008 -0.005 0.003 0.000
1411 4 6.661 15.521 10.504 -0.003 0.002 -0.008 0.000
2205 4 0.708 15.398 16.267 0.010 0.002 -0.000 -0.000
20 4 14.263 -0.833 -3.009 0.003 -0.001 -0.000 0.000
1782 4 15.463 14.114 14.270 0.008 -0.010 -0.009 0.000
1409 4 4.780 15.810 8.892 0.006 -0.016 -0.001 0.000
1413 4 8.672 16.040 8.239 -0.001 0.005 -0.001 0.000
2209 4 4.774 15.916 16.392 -0.006 -0.005 -0.010 0.000
1007 4 2.893 16.054 6.325 -0.006 0.001 0.014 -0.000
180 4 14.405 14.307 -2.973 0.004 -0.007 -0.001 -0.000
2461 4 16.060 1.135 19.557 0.009 -0.002 -0.001 -0.000
1811 4 6.368 15.893 14.312 -0.003 0.000 0.000 0.000
1011 4 6.458 15.825 6.399 0.008 0.007 0.002 0.000
57 4 12.529 0.967 -2.847 -0.002 0.003 -0.004 -0.000
49 4 4.861 1.344 -2.590 -0.009 -0.012 0.008 0.000
1381 4 15.899 12.629 8.124 -0.002 -0.000 -0.003 -0.000
1213 4 8.627 -2.652 8.438 0.011 0.005 -0.001 -0.000
53 4 8.399 1.088 -2.803 -0.007 0.001 -0.001 -0.000
168 4 2.825 14.210 -2.459 0.004 -0.001 0.007 0.000
169 4 4.281 12.512 -2.808 -0.002 0.007 0.006 -0.000
2609 4 4.462 16.108 19.894 -0.002 -0.005 0.004 0.000
1807 4 2.654 16.050 14.660 0.007 0.002 -0.006 0.000
2409 4 4.374 -2.663 19.757 -0.004 -0.002 -0.005 0.000
2539 4 14.091 8.833 22.199 0.007 0.005 0.009 0.000
56 4 9.833 2.959 -2.525 0.002 0.003 -0.000 -0.000
1405 4 0.771 15.729 8.768 0.000 0.004 -0.002 0.000
811 4 6.718 -2.464 6.607 -0.005 -0.007 -0.002 -0.000
1207 4 2.581 -2.608 9.501 0.004 0.003 0.009 -0.000
2011 4 6.281 -2.759 17.875 0.004 -0.003 0.001 -0.000
60 4 14.476 2.910 -2.826 0.004 0.005 -0.006 0.000
1661 4 15.762 0.883 12.523 -0.003 -0.004 -0.001 0.000
2101 4 15.890 4.832 16.189 -0.003 -0.001 -0.002 0.000
1241 4 -2.901 1.070 7.816 -0.003 -0.000 -0.001 -0.000
1003 4 -1.289 16.154 6.318 0.008 0.003 -0.009 -0.000
2005 4 0.695 -2.859 15.828 -0.006 -0.002 0.001 -0.000
1615 4 9.919 -2.304 14.067 0.001 -0.013 0.000 -0.000
84 4 -1.237 6.377 -2.931 -0.004 0.007 -0.005 0.000
901 4 15.777 5.016 4.279 0.012 0.001 -0.004 -0.000
1261 4 16.047 1.586 8.349 -0.001 0.010 0.011 -0.000
502 4 15.918 7.135 3.104 -0.002 -0.008 0.004 0.000