ITEM: TIMESTEP
14000
ITEM: NUMBER OF ATOMS
32000
ITEM: BOX BOUNDS pp pp pp
-3.006814 73.486814
-3.147420 73.627420
-2.934280 73.414280
ITEM: ATOMS id type x y z vx vy vz q
6 4 1.546 -1.318 -1.435 0.004 0.000 -0.002 -0.000
10 4 4.464 -1.265 -1.101 -0.002 0.000 0.001 0.000
14 4 8.616 -1.209 -1.285 -0.010 0.014 -0.013 -0.000
18 4 12.380 -0.959 -1.026 0.001 0.005 0.006 0.000
43 4 -0.939 0.310 -1.355 0.004 0.005 0.012 0.000
46 4 0.264 2.312 -0.858 -0.001 0.006 0.000 -0.000
47 4 2.878 0.780 -1.012 -0.002 -0.004 -0.003 0.000
50 4 4.793 2.617 -0.973 0.009 -0.002 0.005 0.000
51 4 6.390 0.624 -1.110 0.003 0.006 0.003 0.000
54 4 8.391 2.729 -0.952 0.005 0.006 -0.001 0.000
55 4 10.692 0.631 -1.043 0.012 -0.002 0.002 -0.000
58 4 12.445 2.613 -1.213 -0.000 -0.016 0.012 0.000
59 4 14.358 1.047 -0.803 -0.002 -0.013 0.003 -0.000
83 4 -1.160 4.268 -0.552 0.007 0.005 -0.009 0.000
86 4 0.669 6.438 -0.978 -0.010 -0.000 -0.012 -0.000
87 4 2.088 3.821 -1.053 -0.002 0.005 0.008 0.000
90 4 4.888 6.002 -1.452 0.005 0.001 0.005 -0.000
91 4 6.698 4.398 -0.785 0.003 -0.007 -0.003 -0.000
94 4 8.500 6.165 -1.216 -0.002 -0.001 -0.007 0.000
95 4 10.546 4.145 -0.979 0.003 0.008 -0.004 -0.000
98 4 12.139 6.611 -1.217 -0.008 -0.011 0.005 0.000
99 4 14.523 4.773 -1.044 0.004 0.005 0.001 -0.000
123 4 -1.197 7.763 -1.407 0.000 0.006 0.002 0.000
126 4 0.647 10.465 -0.695 0.010 -0.000 0.010 -0.000
127 4 2.783 8.349 -1.018 0.008 0.005 -0.000 -0.000
130 4 5.070 10.382 -1.000 0.004 -0.003 0.002 -0.000
131 4 6.443 8.398 -0.842 0.019 -0.002 -0.002 -0.000
134 4 8.474 10.068 -1.047 0.002 -0.005 -0.003 0.000
135 4 10.546 8.527 -1.231 0.006 0.008 0.001 -0.000
138 4 12.591 10.541 -1.193 -0.004 0.005 -0.003 0.000
139 4 14.094 8.634 -1.449 -0.004 0.007 0.002 -0.000
163 4 -1.192 11.827 -1.119 0.002 0.002 -0.006 0.000
166 4 0.639 13.764 -0.691 -0.003 -0.002 -0.006 0.000
167 4 2.722 12.046 -0.779 -0.009 -0.002 0.006 -0.000
170 4 4.781 14.078 -0.852 -0.003 0.000 0.003 -0.000
171 4 6.894 12.273 -1.265 0.002 0.004 -0.018 0.000
174 4 8.517 14.003 -1.083 -0.003 0.002 0.002 -0.000
175 4 10.225 12.215 -1.236 0.002 -0.006 -0.001 -0.000
178 4 12.382 13.983 -0.663 -0.007 -0.009 0.006 0.000
179 4 14.383 11.789 -0.706 0.003 0.005 -0.014 -0.000
404 4 -0.783 -1.307 0.627 -0.002 0.016 -0.003 0.000
406 4 1.237 -1.519 2.914 0.003 0.002 -0.004 0.000
408 4 3.063 -1.615 0.814 0.005 -0.001 0.001 -0.000
410 4 4.121 -0.970 3.329 -0.008 0.012 -0.006 -0.000
412 4 6.576 -1.257 0.262 0.002 -0.002 -0.011 -0.000
414 4 8.260 -1.383 2.611 0.002 0.010 0.010 0.000
416 4 10.253 -1.366 0.846 -0.003 -0.001 -0.004 -0.000
418 4 12.981 -1.034 2.824 0.001 -0.001 -0.005 -0.000
420 4 14.688 -0.908 0.982 -0.009 -0.006 -0.003 0.000
443 4 -0.672 0.426 2.229 -0.004 0.004 -0.008 -0.000
444 4 -1.241 2.543 0.911 -0.003 -0.002 0.004 0.000
445 4 1.424 0.372 1.004 -0.007 -0.003 0.006 0.000
446 4 1.065 2.689 2.385 0.004 -0.006 -0.002 -0.000
447 4 3.004 0.954 3.005 -0.008 0.001 0.006 -0.000
448 4 2.761 2.355 0.819 -0.002 -0.000 0.007 -0.000
449 4 4.860 0.307 1.305 -0.005 -0.001 -0.006 0.000
450 4 4.690 2.596 2.854 0.003 0.006 -0.006 0.000
451 4 6.319 0.864 3.058 -0.011 0.003 -0.007 -0.000
452 4 6.645 2.511 0.731 -0.005 0.001 0.007 0.000
453 4 8.511 0.888 0.634 0.004 0.005 0.000 -0.000
454 4 8.371 2.643 2.548 -0.002 -0.003 -0.013 0.000
455 4 10.111 0.847 2.700 0.001 -0.002 0.005 -0.000
456 4 10.577 2.861 1.067 -0.005 -0.004 -0.003 -0.000
457 4 12.761 0.701 0.863 0.002 -0.014 0.003 -0.000
458 4 12.384 2.552 3.170 -0.007 0.006 -0.005 -0.000
459 4 14.614 0.990 2.336 0.002 -0.002 -0.001 0.000
460 4 14.329 2.986 0.793 0.004 0.001 0.001 -0.000
483 4 -1.127 4.691 2.699 0.002 -0.006 0.002 0.000
484 4 -1.062 6.564 0.905 -0.005 0.007 -0.005 -0.000
485 4 0.657 4.711 1.058 -0.017 0.003 0.002 0.000
486 4 0.884 6.358 2.976 0.008 -0.010 -0.000 -0.000
487 4 2.668 4.554 2.550 0.002 -0.002 -0.003 0.000
488 4 2.498 6.453 0.984 0.011 -0.002 -0.002 0.000
489 4 4.438 4.507 0.168 0.004 0.006 -0.006 -0.000
490 4 4.630 6.193 2.722 -0.008 0.013 -0.000 0.000
491 4 6.840 4.405 2.803 -0.006 -0.004 -0.004 -0.000
492 4 6.600 6.379 0.839 0.001 0.007 0.003 0.000
493 4 8.377 4.704 0.954 -0.007 -0.002 -0.005 -0.000
494 4 8.256 6.319 2.901 -0.002 0.001 -0.004 0.000
495 4 10.303 4.714 2.831 -0.007 -0.000 -0.008 0.000
496 4 10.679 6.396 0.579 -0.002 0.001 -0.006 -0.000
497 4 12.519 4.577 0.734 -0.000 -0.002 -0.001 -0.000
498 4 12.052 6.387 2.731 -0.007 -0.011 -0.010 -0.000
499 4 14.082 4.815 2.974 -0.003 -0.002 0.001 -0.000
500 4 13.973 6.416 0.675 0.006 0.009 -0.001 0.000
523 4 -1.193 8.405 2.744 0.003 -0.012 -0.007 0.000
524 4 -1.100 10.185 1.168 0.003 0.005 0.000 -0.000
525 4 0.751 8.263 0.882 -0.016 -0.004 -0.006 0.000
526 4 0.993 10.241 2.832 -0.007 0.004 -0.013 0.000
527 4 2.539 8.362 2.741 0.006 0.004 0.000 -0.000
528 4 2.647 9.831 0.863 -0.010 -0.005 -0.000 -0.000
529 4 4.758 7.937 0.909 0.002 -0.005 -0.001 -0.000
530 4 4.619 10.120 2.945 -0.014 0.001 0.003 0.000
531 4 6.437 8.300 2.966 -0.004 -0.005 0.001 0.000
532 4 7.000 10.159 0.883 0.004 0.004 0.009 -0.000
533 4 8.328 8.228 0.948 0.003 -0.003 -0.002 -0.000
534 4 8.213 10.181 2.793 0.003 -0.000 0.000 -0.000
535 4 10.304 8.321 2.726 0.007 -0.000 0.008 -0.000
536 4 10.059 10.340 1.055 -0.002 0.012 -0.001 0.000
537 4 12.119 8.755 0.541 0.003 0.006 0.014 -0.000
538 4 11.991 10.275 2.711 0.012 -0.004 -0.006 0.000
539 4 13.801 8.576 2.768 0.002 0.000 -0.001 -0.000
540 4 14.546 10.136 1.235 -0.008 0.002 -0.003 0.000
563 4 -1.203 12.197 2.825 -0.008 0.009 -0.004 -0.000
564 4 -1.171 13.867 0.802 0.002 0.001 0.004 0.000
565 4 0.820 12.203 1.168 -0.007 -0.007 0.013 -0.000
566 4 0.634 14.073 2.699 0.011 -0.001 0.001 0.000
567 4 2.928 12.234 2.930 -0.005 0.001 0.005 -0.000
568 4 2.518 13.999 0.774 0.001 -0.002 0.001 0.000
569 4 4.601 11.795 1.032 0.002 -0.000 0.001 0.000
570 4 4.673 13.991 2.862 0.007 -0.004 -0.000 0.000
571 4 6.606 12.384 2.910 -0.002 0.004 0.001 0.000
572 4 6.731 13.845 0.909 0.006 0.010 -0.006 -0.000
573 4 8.863 12.513 0.520 0.007 -0.004 0.005 0.000
574 4 8.280 14.441 2.779 -0.013 -0.002 0.011 0.000
575 4 10.368 12.101 2.939 -0.010 0.003 0.004 -0.000
576 4 10.530 14.045 1.016 0.002 -0.013 -0.002 0.000
577 4 12.149 11.897 0.793 -0.003 -0.005 0.005 -0.000
578 4 12.398 13.914 2.645 -0.002 0.008 -0.003 0.000
579 4 14.312 11.821 2.757 -0.005 -0.004 -0.002 -0.000
580 4 14.345 13.901 0.884 0.004 0.005 0.008 0.000
804 4 -1.141 -1.314 3.945 -0.010 -0.011 0.002 0.000
806 4 0.314 -0.849 6.333 -0.003 -0.008 0.006 0.000
808 4 2.491 -1.876 5.157 -0.010 -0.000 -0.009 0.000
810 4 4.590 -1.119 6.861 -0.004 0.003 0.006 0.000
812 4 6.349 -1.117 4.996 0.008 -0.002 -0.005 0.000
814 4 8.328 -1.050 6.693 0.008 0.007 0.003 -0.000
816 4 10.729 -0.534 4.596 -0.000 -0.002 -0.005 0.000
818 4 12.409 -1.200 6.564 0.007 0.002 -0.003 -0.000
820 4 14.700 -1.203 4.787 -0.002 -0.000 0.001 0.000
843 4 -1.435 0.766 6.087 0.000 0.013 -0.001 -0.000
844 4 -0.705 2.538 4.089 0.009 0.006 -0.008 -0.000
845 4 0.585 0.709 4.511 -0.007 0.009 0.007 0.000
846 4 0.618 2.643 6.418 0.006 0.007 0.006 -0.000
847 4 2.491 0.594 6.551 0.003 -0.004 -0.013 -0.000
848 4 2.535 2.490 5.042 -0.003 0.006 0.010 0.000
849 4 4.790 1.048 5.021 -0.009 0.003 0.002 -0.000
850 4 4.616 2.745 6.553 -0.007 0.005 0.001 0.000
851 4 6.928 1.110 6.551 -0.008 0.009 -0.000 0.000
852 4 7.159 2.701 4.675 0.005 -0.005 0.010 0.000
853 4 8.263 0.127 4.425 -0.005 -0.001 -0.005 -0.000
854 4 8.332 3.019 7.311 0.001 0.012 0.008 0.000
855 4 10.638 0.379 6.745 -0.010 0.009 0.007 0.000
856 4 9.938 2.434 5.136 0.011 -0.010 -0.001 -0.000
857 4 12.734 0.835 4.929 -0.011 -0.003 0.002 -0.000
858 4 12.198 2.449 6.790 -0.003 -0.005 0.007 -0.000
859 4 14.511 0.779 6.722 -0.004 0.000 0.007 -0.000
860 4 14.226 2.851 4.620 0.004 -0.001 -0.004 0.000
883 4 -1.126 4.421 6.595 0.005 0.019 0.003 -0.000
884 4 -1.180 6.591 4.530 0.007 0.003 0.005 0.000
885 4 0.920 4.294 4.473 0.011 -0.004 -0.008 -0.000
886 4 0.728 6.416 6.140 0.008 0.004 0.001 0.000
887 4 2.549 4.648 6.353 -0.005 0.003 -0.002 0.000
888 4 2.551 6.625 4.464 0.001 0.003 -0.004 -0.000
889 4 4.783 4.196 4.609 -0.006 -0.002 0.003 -0.000
890 4 4.538 6.170 6.460 0.008 -0.009 0.003 0.000
891 4 6.552 4.353 6.915 -0.009 0.004 -0.005 -0.000
892 4 6.502 6.273 4.793 -0.000 0.000 0.010 0.000
893 4 8.869 4.730 4.678 -0.009 -0.012 -0.003 -0.000
894 4 8.290 6.328 6.819 0.006 -0.002 0.006 0.000
895 4 10.417 4.664 6.749 -0.003 0.006 0.002 -0.000
896 4 10.163 6.486 4.821 0.007 0.012 0.008 0.000
897 4 12.304 4.560 4.699 0.004 0.002 -0.003 0.000
898 4 12.085 6.459 6.967 0.005 0.007 0.001 0.000
899 4 13.777 4.344 6.798 -0.002 0.005 0.004 -0.000
900 4 14.024 6.567 4.844 0.004 -0.004 -0.008 0.000
923 4 -0.945 8.440 6.260 -0.005 -0.005 0.006 -0.000
924 4 -0.859 10.376 4.507 0.006 -0.011 0.008 0.000
925 4 0.739 8.298 4.605 0.007 0.005 0.004 -0.000
926 4 0.737 10.385 6.430 -0.010 0.004 -0.003 -0.000
927 4 2.521 8.239 6.759 0.007 0.002 -0.005 0.000
928 4 2.453 10.416 4.814 0.003 0.006 0.013 0.000
929 4 4.559 8.358 4.771 0.009 -0.002 0.007 0.000
930 4 4.340 10.522 6.629 -0.006 0.002 -0.007 0.000
931 4 6.544 8.640 6.366 0.001 -0.003 -0.003 -0.000
932 4 6.325 10.486 4.719 0.005 -0.007 0.002 0.000
933 4 8.592 8.379 4.871 0.006 -0.002 -0.015 -0.000
934 4 8.449 10.437 6.483 -0.004 -0.001 -0.006 0.000
935 4 10.589 8.591 6.583 0.006 0.002 -0.001 -0.000
936 4 10.402 10.579 4.897 0.000 0.002 -0.008 0.000
937 4 12.515 8.422 4.730 -0.003 0.010 0.005 0.000
938 4 12.055 10.261 6.714 -0.004 0.009 -0.002 0.000
939 4 14.278 8.098 6.517 0.011 -0.001 0.003 -0.000
940 4 14.037 10.180 4.614 0.001 -0.007 -0.002 -0.000
963 4 -0.952 12.227 6.643 -0.006 -0.008 0.003 -0.000
964 4 -1.174 14.077 4.651 0.003 -0.009 0.002 -0.000
965 4 1.148 12.218 4.533 0.003 0.000 0.009 -0.000
966 4 0.786 14.125 6.673 0.002 -0.011 0.003 0.000
967 4 2.487 12.281 6.786 0.005 0.005 0.005 0.000
968 4 2.783 14.412 4.692 0.006 0.006 -0.003 0.000
969 4 4.283 12.301 4.878 -0.003 0.008 0.003 -0.000
970 4 4.647 14.405 6.649 0.006 0.001 -0.002 0.000
971 4 6.562 12.596 6.777 0.004 -0.001 0.001 -0.000
972 4 6.378 14.115 4.673 0.009 0.007 0.002 -0.000
973 4 8.457 12.220 4.767 0.004 0.001 -0.009 0.000
974 4 8.397 14.345 6.403 0.008 0.002 -0.001 0.000
975 4 10.296 12.292 6.498 -0.006 0.000 0.007 0.000
976 4 10.249 14.229 4.492 -0.005 -0.009 -0.004 -0.000
977 4 12.288 12.189 4.839 -0.007 0.002 -0.008 -0.000
978 4 12.372 13.805 6.858 0.016 -0.000 0.004 -0.000
979 4 14.118 12.127 6.601 0.009 -0.013 -0.005 -0.000
980 4 14.218 14.091 4.944 -0.005 -0.009 0.003 0.000
1204 4 -1.109 -0.775 8.345 -0.007 -0.010 0.000 0.000
1206 4 0.686 -0.965 10.539 0.005 0.006 -0.001 0.000
1208 4 2.478 -1.052 8.594 -0.004 -0.003 0.005 -0.000
1210 4 4.718 -1.425 10.316 0.007 0.004 0.002 0.000
1212 4 6.155 -0.825 8.187 -0.004 0.001 -0.005 0.000
1214 4 8.312 -1.152 10.351 0.001 0.005 -0.009 -0.000
1216 4 10.289 -1.498 8.628 -0.002 0.000 -0.005 0.000
1218 4 12.675 -1.253 10.518 0.004 0.006 0.001 0.000
1220 4 14.794 -1.332 8.607 0.008 -0.000 -0.004 0.000
1243 4 -1.458 0.753 10.507 0.007 -0.004 0.009 0.000
1244 4 -1.612 2.401 8.171 -0.000 0.014 0.003 0.000
1245 4 0.548 0.824 8.354 0.003 -0.005 -0.010 -0.000
1246 4 0.885 2.285 10.085 0.011 0.004 0.005 0.000
1247 4 2.758 0.919 10.571 -0.007 -0.002 0.007 0.000
1248 4 2.627 2.751 8.070 0.001 0.009 -0.001 -0.000
1249 4 4.214 1.234 8.223 0.004 -0.002 0.003 0.000
1250 4 4.692 2.691 10.748 -0.007 0.009 0.007 0.000
1251 4 6.043 0.690 10.472 -0.004 -0.007 -0.015 -0.000
1252 4 6.247 2.466 8.757 0.001 0.007 0.002 -0.000
1253 4 8.602 0.603 8.322 -0.012 -0.002 -0.016 -0.000
1254 4 8.227 2.312 10.232 0.003 -0.002 -0.009 0.000
1255 4 10.351 0.674 10.230 0.001 0.011 0.001 0.000
1256 4 10.531 2.554 8.712 -0.010 0.004 0.008 0.000
1257 4 12.433 0.571 8.873 0.008 -0.004 0.005 -0.000
1258 4 12.472 2.793 10.696 0.010 -0.006 0.000 -0.000
1259 4 14.338 0.913 10.502 0.000 -0.004 0.006 0.000
1260 4 14.217 2.939 8.912 -0.011 0.000 -0.002 0.000
1283 4 -1.282 4.733 10.324 0.002 0.005 -0.012 0.000
1284 4 -0.972 6.729 8.334 -0.001 0.017 -0.006 -0.000
1285 4 0.896 4.325 8.322 0.003 0.005 -0.008 0.000
1286 4 0.422 6.573 10.291 -0.005 -0.000 -0.006 -0.000
1287 4 2.620 4.452 10.147 -0.005 0.006 -0.002 -0.000
1288 4 2.514 6.402 8.681 -0.008 -0.002 -0.010 -0.000
1289 4 4.594 4.423 8.568 0.004 -0.006 -0.005 0.000
1290 4 4.249 6.083 10.386 -0.006 0.006 0.009 -0.000
1291 4 6.210 4.770 11.080 0.002 -0.006 -0.004 0.000
1292 4 6.197 6.570 8.525 -0.006 0.002 -0.007 -0.000
1293 4 8.374 4.661 9.165 0.009 0.004 0.002 -0.000
1294 4 8.304 6.812 10.596 -0.008 -0.009 -0.006 0.000
1295 4 10.543 4.537 10.593 -0.011 -0.006 0.009 -0.000
1296 4 10.192 6.439 8.583 0.008 0.005 0.009 0.000
1297 4 12.241 4.431 8.584 0.001 -0.005 -0.003 0.000
1298 4 12.200 6.598 10.742 -0.007 0.001 -0.007 0.000
1299 4 14.063 5.134 10.842 0.006 0.002 0.007 -0.000
1300 4 14.346 6.583 8.457 0.001 0.013 -0.002 0.000
1323 4 -1.411 8.982 9.934 0.001 0.010 -0.004 0.000
1324 4 -1.259 10.199 7.869 -0.007 0.000 0.002 0.000
1325 4 0.733 8.272 8.084 -0.007 0.003 -0.008 -0.000
1326 4 0.823 9.898 10.010 0.008 -0.007 0.002 0.000
1327 4 2.340 8.247 10.630 0.002 -0.006 -0.005 -0.000
1328 4 2.413 10.242 8.215 0.001 0.003 -0.013 -0.000
1329 4 4.305 8.348 8.323 -0.001 0.000 -0.002 -0.000
1330 4 4.406 9.964 10.180 0.002 -0.001 -0.003 -0.000
1331 4 6.197 8.054 10.423 0.009 0.002 0.001 0.000
1332 4 6.236 10.324 8.241 0.004 0.004 -0.014 -0.000
1333 4 8.324 8.528 8.557 0.004 -0.009 -0.011 0.000
1334 4 8.147 9.731 10.941 0.002 0.001 -0.007 -0.000
1335 4 10.488 8.227 10.469 -0.000 -0.005 0.000 -0.000
1336 4 10.074 10.133 8.605 -0.004 -0.004 -0.005 0.000
1337 4 12.088 8.476 8.595 -0.004 -0.007 -0.002 -0.000
1338 4 11.961 10.125 10.448 0.001 0.006 0.008 0.000
1339 4 14.446 7.991 10.761 -0.003 0.009 -0.004 0.000
1340 4 13.996 10.182 8.570 -0.017 0.001 0.000 -0.000
1363 4 -1.175 12.073 10.043 -0.006 0.003 0.001 0.000
1364 4 -0.908 14.449 8.370 -0.001 0.009 0.009 -0.000
1365 4 0.772 12.194 8.396 -0.005 -0.004 0.004 -0.000
1366 4 1.155 13.865 10.360 0.001 0.004 -0.005 -0.000
1367 4 2.744 11.750 10.213 0.001 -0.009 0.004 0.000
1368 4 2.900 13.808 8.654 0.009 -0.003 -0.002 -0.000
1369 4 4.740 12.190 8.357 -0.001 -0.003 -0.012 0.000
1370 4 4.702 14.173 10.511 0.004 0.000 -0.001 -0.000
1371 4 6.431 12.003 10.118 0.008 -0.008 -0.007 0.000
1372 4 6.246 14.189 8.672 -0.006 0.007 -0.004 0.000
1373 4 8.252 11.996 8.508 -0.004 -0.002 0.010 -0.000
1374 4 8.395 14.378 10.293 -0.001 -0.003 -0.007 0.000
1375 4 10.194 12.247 10.424 0.006 -0.000 0.018 0.000
1376 4 10.256 13.939 8.347 0.001 -0.013 0.002 0.000
1377 4 11.823 11.908 8.508 -0.006 0.006 0.015 -0.000
1378 4 11.817 14.064 10.317 -0.003 0.000 0.011 -0.000
1379 4 13.722 11.955 10.234 -0.007 -0.001 0.004 0.000
1380 4 13.901 13.851 8.543 0.003 0.007 -0.006 0.000
1604 4 -1.356 -1.494 12.205 -0.003 -0.005 -0.005 -0.000
1606 4 0.773 -1.564 14.416 0.001 0.002 0.006 -0.000
1608 4 2.480 -1.654 12.293 -0.004 0.003 -0.002 0.000
1610 4 4.704 -1.586 14.062 -0.005 -0.005 -0.001 -0.000
1612 4 6.427 -1.605 12.389 -0.006 -0.005 -0.000 0.000
1614 4 8.548 -1.161 14.259 0.002 -0.008 -0.006 0.000
1616 4 10.406 -1.082 12.549 -0.007 -0.019 -0.000 -0.000
1618 4 12.365 -1.163 14.596 0.001 -0.001 0.004 0.000
1620 4 14.364 -0.968 12.773 0.004 -0.000 -0.004 -0.000
1643 4 -1.329 0.314 14.054 0.007 -0.000 0.003 0.000
1644 4 -1.410 2.574 12.679 -0.010 -0.004 0.002 0.000
1645 4 0.653 0.674 12.376 0.009 -0.001 0.001 -0.000
1646 4 0.629 2.437 14.605 0.002 0.006 -0.004 0.000
1647 4 2.569 0.380 14.490 0.005 -0.000 -0.002 0.000
1648 4 2.136 2.635 12.802 0.004 -0.000 0.002 0.000
1649 4 4.177 0.580 12.402 0.000 0.001 -0.002 -0.000
1650 4 4.406 2.410 14.405 0.005 -0.006 -0.006 -0.000
1651 4 6.418 0.325 14.111 -0.005 0.012 -0.009 -0.000
1652 4 6.166 2.606 12.547 -0.002 -0.006 -0.001 0.000
1653 4 7.952 0.437 12.061 -0.007 -0.006 0.006 0.000
1654 4 8.301 2.443 14.137 -0.001 -0.011 0.007 -0.000
1655 4 10.301 0.667 14.321 0.004 -0.005 -0.003 -0.000
1656 4 10.093 2.654 12.024 0.008 -0.003 -0.005 -0.000
1657 4 12.657 0.414 12.478 0.002 -0.003 -0.002 0.000
1658 4 12.127 2.317 14.404 -0.006 0.004 -0.001 0.000
1659 4 14.759 1.011 13.892 0.005 -0.008 0.009 -0.000
1660 4 14.312 2.809 12.250 -0.005 -0.009 -0.003 0.000
1683 4 -1.116 4.163 14.434 -0.000 0.005 -0.005 -0.000
1684 4 -1.211 6.671 12.403 0.001 0.001 0.008 -0.000
1685 4 0.217 4.391 12.238 0.001 0.009 -0.002 -0.000
1686 4 0.307 6.260 14.303 -0.001 0.007 -0.002 0.000
1687 4 1.999 4.473 14.387 0.002 0.004 -0.004 -0.000
1688 4 1.974 6.155 12.010 0.000 -0.005 -0.004 0.000
1689 4 3.985 4.342 12.557 -0.011 -0.006 0.006 -0.000
1690 4 4.325 6.192 14.104 0.007 -0.002 0.002 0.000
1691 4 6.281 4.209 14.176 -0.001 -0.009 -0.001 0.000
1692 4 6.084 6.207 12.527 0.008 0.011 0.011 -0.000
1693 4 8.255 4.559 12.379 -0.002 0.002 0.005 0.000
1694 4 8.103 6.162 14.397 0.010 0.002 -0.003 0.000
1695 4 10.503 4.366 14.492 0.005 0.005 -0.005 0.000
1696 4 10.204 6.227 12.526 -0.007 -0.007 -0.004 -0.000
1697 4 12.152 4.402 12.345 -0.003 -0.002 0.001 0.000
1698 4 12.095 6.261 14.194 -0.002 0.008 -0.005 0.000
1699 4 14.120 4.392 14.216 0.008 -0.003 -0.008 0.000
1700 4 14.053 6.412 12.744 0.011 0.003 0.001 -0.000
1723 4 -1.626 8.297 14.473 0.001 0.002 -0.009 -0.000
1724 4 -0.932 10.480 12.236 0.007 -0.004 -0.001 -0.000
1725 4 0.248 8.418 12.099 -0.010 0.008 -0.002 0.000
1726 4 0.765 9.753 14.470 -0.011 0.005 0.001 0.000
1727 4 2.753 8.191 14.460 0.003 -0.001 0.001 -0.000
1728 4 2.821 10.504 12.417 0.004 -0.012 0.002 0.000
1729 4 4.015 8.042 12.480 0.002 0.003 -0.007 0.000
1730 4 4.405 10.533 14.298 -0.003 -0.000 -0.001 -0.000
1731 4 6.109 8.253 14.626 -0.001 -0.005 -0.003 -0.000
1732 4 5.811 9.958 12.286 -0.004 -0.004 0.006 0.000
1733 4 8.101 8.132 12.970 0.001 0.003 -0.004 0.000
1734 4 7.872 10.316 13.958 -0.012 0.005 0.001 -0.000
1735 4 10.157 8.184 14.419 0.003 0.006 0.003 0.000
1736 4 10.346 10.289 12.267 0.005 -0.001 -0.001 0.000
1737 4 12.022 8.315 12.776 -0.009 -0.003 0.001 0.000
1738 4 12.330 10.268 14.108 -0.002 0.004 -0.009 -0.000
1739 4 14.250 8.464 13.742 0.002 -0.003 -0.006 -0.000
1740 4 14.318 10.441 11.962 -0.014 0.003 -0.002 -0.000
1763 4 -1.188 12.242 14.060 -0.002 0.006 0.000 0.000
1764 4 -1.038 14.068 12.053 0.001 0.005 -0.001 -0.000
1765 4 0.758 12.377 12.050 0.006 0.002 0.008 0.000
1766 4 0.663 14.101 13.849 -0.000 -0.008 0.006 0.000
1767 4 2.922 12.234 14.046 0.002 -0.006 0.005 -0.000
1768 4 2.675 14.412 12.186 -0.002 0.007 0.003 0.000
1769 4 4.804 12.337 12.167 -0.001 -0.009 0.001 -0.000
1770 4 4.883 14.001 14.117 0.005 0.004 -0.001 0.000
1771 4 6.419 11.940 13.916 -0.002 -0.003 -0.002 -0.000
1772 4 6.703 14.296 12.332 0.006 -0.006 0.000 -0.000
1773 4 8.037 12.021 12.217 0.009 0.009 0.000 0.000
1774 4 8.432 14.922 14.176 0.007 0.003 -0.007 0.000
1775 4 9.825 12.314 13.919 0.012 -0.007 -0.003 -0.000
1776 4 9.940 14.158 12.086 0.001 -0.001 -0.002 0.000
1777 4 12.139 12.008 12.490 -0.003 0.004 -0.007 -0.000
1778 4 12.021 13.927 13.656 0.010 0.001 0.003 0.000
1779 4 14.388 12.038 13.586 0.001 0.003 0.002 0.000
1780 4 13.976 14.025 11.681 0.010 -0.002 0.004 0.000
2004 4 -0.912 -1.931 16.448 0.003 -0.002 -0.010 0.000
2006 4 0.884 -1.256 17.947 -0.012 -0.004 -0.001 -0.000
2008 4 2.616 -1.572 16.040 0.003 0.002 -0.013 0.000
2010 4 4.841 -1.370 18.018 -0.008 0.008 -0.002 -0.000
2012 4 7.112 -1.314 16.097 -0.001 0.003 0.003 0.000
2014 4 8.617 -1.097 18.177 0.010 0.004 -0.002 -0.000
2016 4 10.341 -1.153 16.332 -0.010 -0.008 -0.010 -0.000
2018 4 11.938 -1.166 18.217 -0.006 0.000 0.002 -0.000
2020 4 14.313 -1.507 16.652 0.001 0.001 -0.008 -0.000
2043 4 -1.619 0.607 18.353 -0.009 0.004 0.002 -0.000
2044 4 -1.766 2.379 16.019 0.011 0.001 0.009 0.000
2045 4 0.491 0.570 16.169 0.005 0.007 0.007 -0.000
2046 4 0.430 2.312 18.140 -0.005 -0.014 -0.003 -0.000
2047 4 2.988 0.192 17.630 -0.005 -0.013 0.000 -0.000
2048 4 2.513 2.546 16.125 0.002 -0.000 -0.000 0.000
2049 4 4.674 0.145 15.982 0.001 -0.006 0.002 -0.000
2050 4 4.615 2.782 18.141 0.004 -0.001 0.007 -0.000
2051 4 6.230 0.602 18.270 0.001 0.004 -0.006 0.000
2052 4 6.508 2.237 16.549 -0.001 -0.007 -0.002 -0.000
2053 4 8.708 0.859 16.384 0.008 -0.012 -0.003 0.000
2054 4 8.166 2.484 18.343 -0.004 -0.003 -0.000 -0.000
2055 4 10.481 0.629 18.241 0.006 -0.004 0.002 0.000
2056 4 10.340 2.498 16.637 -0.003 -0.003 -0.007 0.000
2057 4 12.396 0.727 16.566 -0.016 0.004 0.003 0.000
2058 4 12.261 2.917 18.035 -0.002 -0.007 -0.001 -0.000
2059 4 14.653 0.973 18.175 -0.006 0.007 -0.003 -0.000
2060 4 14.307 2.467 16.152 0.004 0.008 -0.001 -0.000
2083 4 -1.801 4.301 17.913 0.007 -0.004 -0.002 0.000
2084 4 -1.309 6.389 16.033 0.002 -0.004 -0.005 -0.000
2085 4 0.271 4.362 16.235 -0.006 0.005 0.004 0.000
2086 4 0.430 6.387 17.898 -0.001 -0.003 0.001 -0.000
2087 4 2.625 4.453 18.088 0.004 0.002 0.011 -0.000
2088 4 2.344 6.172 15.942 0.008 -0.001 -0.009 0.000
2089 4 4.848 4.249 16.105 0.010 0.002 0.006 0.000
2090 4 4.532 6.154 17.944 -0.003 0.006 0.001 -0.000
2091 4 6.895 4.367 17.818 -0.008 -0.011 -0.001 0.000
2092 4 6.628 6.138 16.099 0.002 -0.010 0.002 -0.000
2093 4 8.597 4.222 16.247 0.003 0.008 0.003 -0.000
2094 4 8.523 6.287 17.976 0.010 -0.003 0.000 -0.000
2095 4 10.302 4.487 18.330 -0.003 -0.006 -0.007 -0.000
2096 4 10.244 6.044 16.191 -0.004 -0.002 0.013 -0.000
2097 4 12.430 4.738 16.056 0.001 -0.001 -0.001 -0.000
2098 4 12.403 6.119 18.437 -0.001 0.005 -0.004 -0.000
2099 4 14.091 4.269 17.892 -0.002 -0.007 -0.005 0.000
2100 4 14.254 6.306 16.233 0.011 0.007 0.010 -0.000
2123 4 -1.523 8.477 17.977 -0.013 0.004 0.003 0.000
2124 4 -1.484 10.315 16.055 -0.003 -0.012 -0.003 0.000
2125 4 0.558 8.143 16.371 0.002 0.003 -0.003 -0.000
2126 4 0.490 10.111 18.016 -0.002 -0.002 -0.003 0.000
2127 4 2.096 8.049 18.335 0.004 0.013 0.002 0.000
2128 4 2.892 10.005 16.355 0.002 -0.000 -0.003 -0.000
2129 4 4.564 8.144 16.374 0.008 0.004 0.006 0.000
2130 4 4.816 10.262 18.347 0.002 0.005 0.005 0.000
2131 4 6.322 8.041 18.058 0.000 -0.007 -0.004 0.000
2132 4 6.235 10.326 15.957 -0.008 -0.002 -0.017 0.000
2133 4 8.145 8.104 16.371 0.004 -0.003 0.003 0.000
2134 4 8.113 10.120 17.841 -0.014 0.004 -0.002 -0.000
2135 4 10.456 8.299 17.813 -0.002 0.001 -0.001 -0.000
2136 4 10.070 10.224 15.988 0.004 -0.003 0.001 0.000
2137 4 12.364 8.295 15.683 -0.004 0.001 -0.009 0.000
2138 4 12.187 10.552 17.982 0.003 0.005 -0.003 -0.000
2139 4 14.221 8.516 17.731 -0.008 -0.001 0.006 0.000
2140 4 14.072 10.295 15.795 0.001 0.003 0.002 -0.000
2163 4 -1.358 12.123 18.149 0.003 -0.000 -0.001 0.000
2164 4 -0.758 14.141 16.186 0.001 -0.007 0.003 -0.000
2165 4 0.232 12.018 16.421 -0.009 -0.006 -0.000 0.000
2166 4 0.827 13.686 18.242 0.008 -0.000 -0.006 0.000
2167 4 2.606 11.946 18.078 0.004 0.010 -0.009 -0.000
2168 4 2.438 13.905 16.035 -0.009 -0.005 0.006 0.000
2169 4 4.391 12.295 16.137 -0.004 0.006 0.000 -0.000
2170 4 4.358 14.294 18.100 0.001 0.010 -0.008 0.000
2171 4 6.472 12.249 18.240 -0.003 -0.001 0.007 -0.000
2172 4 6.286 14.128 16.060 0.007 -0.010 0.001 -0.000
2173 4 8.087 12.051 16.150 0.003 -0.010 -0.003 -0.000
2174 4 8.655 13.880 18.083 0.005 -0.007 -0.009 0.000
2175 4 10.355 12.038 17.971 0.003 -0.008 0.016 0.000
2176 4 10.035 14.026 15.655 -0.001 0.001 -0.000 0.000
2177 4 12.111 12.189 15.633 0.001 0.007 -0.002 0.000
2178 4 12.301 13.770 18.108 0.004 0.008 0.006 0.000
2179 4 14.102 12.227 17.920 -0.001 0.006 -0.002 0.000
2180 4 14.350 13.623 15.896 -0.002 0.003 -0.003 -0.000
2404 4 -0.936 -1.414 19.787 0.003 -0.003 0.007 0.000
2408 4 2.983 -1.370 19.882 0.001 0.003 0.003 -0.000
2412 4 6.799 -1.683 19.916 -0.011 0.006 0.003 -0.000
2416 4 10.477 -1.339 20.062 0.007 0.001 0.003 0.000
2420 4 14.000 -1.094 19.818 0.001 -0.004 -0.000 0.000
2443 4 -0.866 0.542 21.836 0.003 -0.006 -0.002 -0.000
2444 4 -1.367 2.564 19.872 -0.000 -0.012 0.011 0.000
2445 4 0.669 0.336 19.770 -0.003 -0.007 -0.001 0.000
2448 4 2.366 2.243 20.110 0.017 0.004 0.001 0.000
2449 4 4.596 0.433 20.012 -0.004 0.007 -0.002 -0.000
2452 4 6.483 2.448 20.095 0.000 -0.003 0.003 -0.000
2453 4 8.503 0.688 20.148 -0.002 0.003 0.002 -0.000
2456 4 10.490 2.609 20.088 0.003 -0.006 0.004 0.000
2457 4 12.530 1.009 19.805 -0.003 -0.006 0.010 -0.000
2460 4 14.394 2.981 20.111 0.004 0.006 0.000 -0.000
2484 4 -1.464 6.351 19.779 -0.005 0.003 0.006 0.000
2485 4 0.113 4.795 19.375 -0.005 -0.003 -0.001 -0.000
2488 4 2.904 6.241 19.737 -0.001 -0.001 0.006 0.000
2489 4 4.720 4.282 20.006 0.008 0.005 -0.004 0.000
2492 4 6.356 6.285 19.660 -0.009 0.005 -0.005 -0.000
2493 4 8.325 4.521 20.135 0.011 -0.002 0.002 -0.000
2496 4 10.374 6.115 20.312 0.005 0.006 -0.002 0.000
2497 4 12.580 4.594 20.056 -0.004 -0.001 0.006 0.000
2500 4 14.273 6.546 20.394 0.001 0.005 0.008 -0.000
2524 4 -2.038 10.184 20.140 -0.015 0.000 -0.002 0.000
2525 4 0.488 8.275 20.089 0.002 0.007 0.005 -0.000
2528 4 2.429 10.350 19.680 -0.004 0.004 0.001 0.000
2529 4 4.458 8.131 19.614 -0.003 -0.003 0.004 -0.000
2532 4 6.586 10.135 19.800 0.009 -0.004 0.004 -0.000
2533 4 8.588 8.105 19.540 -0.006 -0.000 -0.002 -0.000
2536 4 10.421 10.223 19.589 0.002 0.001 0.001 0.000
2537 4 12.361 8.380 19.480 -0.003 0.008 -0.008 -0.000
2540 4 14.040 10.284 19.701 -0.001 -0.001 -0.004 -0.000
2564 4 -1.078 13.802 20.053 0.009 0.003 0.006 0.000
2565 4 0.610 11.803 19.775 0.000 0.001 0.007 -0.000
2568 4 2.735 13.710 20.130 -0.003 -0.009 0.004 -0.000
2569 4 4.401 12.219 19.930 0.006 0.007 -0.009 -0.000
2572 4 6.386 14.106 19.795 0.011 0.006 -0.007 0.000
2573 4 8.569 11.976 19.943 -0.000 0.005 0.017 -0.000
2576 4 10.239 13.994 20.002 -0.015 0.001 -0.001 0.000
2577 4 12.325 12.010 20.167 -0.004 -0.007 -0.007 0.000
2580 4 14.041 13.631 19.728 -0.001 0.008 -0.001 -0.000
2486 4 1.082 6.158 21.277 0.006 0.001 0.002 0.000
2410 4 4.806 -1.315 21.679 -0.003 0.013 0.004 0.000
2458 4 12.389 2.868 21.838 0.002 0.006 -0.010 -0.000
2459 4 14.000 0.691 22.072 -0.010 0.003 0.008 0.000
2454 4 8.461 2.895 21.748 0.010 -0.005 -0.007 0.000
2539 4 13.925 8.340 22.099 0.007 -0.009 0.016 0.000
2538 4 12.179 9.989 21.811 0.006 0.007 0.006 -0.000
2578 4 12.150 14.068 21.764 0.000 -0.006 -0.001 0.000
2530 4 4.469 10.101 21.491 -0.017 -0.004 -0.005 0.000
2523 4 -1.467 7.953 21.486 -0.001 0.006 -0.004 -0.000
2526 4 0.976 10.005 22.238 -0.002 -0.001 -0.000 -0.000
2534 4 8.270 9.801 21.428 0.000 -0.005 -0.000 -0.000
2483 4 -0.849 4.761 21.815 -0.002 0.002 0.003 0.000
2563 4 -1.487 12.120 21.802 -0.005 0.003 0.002 -0.000
2406 4 1.040 -1.321 21.765 -0.005 0.001 0.004 0.000
2447 4 2.764 0.281 21.949 -0.005 -0.001 0.010 -0.000
2450 4 4.651 2.138 21.895 0.004 -0.000 0.004 -0.000
2494 4 8.348 6.672 21.829 0.009 -0.006 -0.001 0.000
2490 4 4.820 6.383 21.543 -0.004 0.001 -0.005 0.000
2567 4 2.546 11.921 22.294 0.009 0.005 -0.008 -0.000
2527 4 2.686 8.358 21.485 -0.018 -0.003 -0.009 0.000
2498 4 12.317 6.172 21.958 0.012 0.007 0.003 -0.000
2418 4 12.438 -1.277 21.845 -0.007 0.004 -0.002 -0.000
2570 4 4.823 13.918 21.727 0.002 -0.004 0.004 0.000
2566 4 0.730 13.653 21.735 0.003 -0.002 -0.005 0.000
2487 4 2.610 4.056 22.120 -0.001 0.007 0.001 -0.000
2575 4 10.386 11.951 21.989 0.003 -0.004 -0.006 -0.000
2499 4 14.280 4.241 22.103 0.005 -0.000 -0.006 0.000
2535 4 10.445 8.353 21.388 0.005 0.001 0.002 0.000
2531 4 6.364 8.068 21.623 0.001 -0.004 0.010 0.000
2495 4 10.215 4.562 21.828 -0.003 0.008 -0.000 -0.000
2446 4 0.610 2.014 22.051 0.003 -0.002 0.006 0.000
2579 4 14.210 12.253 21.960 -0.004 0.007 0.007 -0.000
2414 4 8.481 -1.325 21.860 -0.000 0.010 0.005 0.000
2574 4 8.348 14.095 21.596 -0.001 -0.009 -0.005 -0.000
982 4 16.053 14.171 6.739 -0.001 0.003 -0.004 -0.000
2571 4 6.627 12.010 21.601 0.001 -0.001 -0.004 -0.000
2215 4 10.441 15.569 18.026 -0.002 0.009 0.005 0.000
817 4 12.668 -2.944 4.628 -0.003 -0.005 0.004 -0.000
1361 4 -2.922 12.441 8.020 -0.012 -0.005 0.002 0.000
2582 4 15.955 14.297 21.651 0.007 0.004 0.001 -0.000
2213 4 8.268 15.854 16.509 -0.000 -0.005 -0.000 -0.000
2451 4 6.711 0.504 21.773 0.006 -0.003 -0.006 0.000
1362 4 -2.983 14.369 10.225 -0.012 -0.000 0.011 0.000
1217 4 12.101 -3.088 8.660 -0.000 0.001 0.003 -0.000
2581 4 16.085 11.997 19.909 -0.001 0.002 -0.003 0.000
1215 4 10.380 -2.785 10.605 -0.008 -0.007 -0.002 0.000
2609 4 4.708 15.865 20.040 0.000 0.013 0.003 0.000
417 4 13.087 -2.660 0.733 -0.003 -0.009 -0.002 0.000
1619 4 14.263 -2.799 14.515 0.011 -0.002 -0.002 -0.000
1617 4 12.591 -3.102 12.429 -0.006 0.002 0.001 0.000
815 4 10.580 -2.842 6.569 0.010 0.005 -0.009 -0.000
2617 4 12.246 15.782 19.998 0.003 0.001 0.000 -0.000
1613 4 8.393 -3.112 12.398 0.005 -0.011 -0.014 -0.000
2142 4 16.047 10.450 17.990 -0.003 0.006 -0.002 -0.000
2619 4 14.029 15.794 21.338 -0.009 0.012 -0.004 0.000
19 4 14.462 -2.937 -1.245 -0.008 -0.002 -0.001 0.000
415 4 10.974 -3.051 2.541 -0.000 -0.005 0.010 -0.000
2141 4 16.171 8.416 16.198 0.014 0.009 0.001 -0.000
1011 4 6.758 16.023 6.776 -0.001 0.004 0.004 -0.000
2455 4 10.310 0.605 22.099 -0.004 0.007 -0.001 0.000
541 4 15.805 8.256 0.858 0.004 -0.003 -0.002 0.000
2217 4 12.723 15.517 15.586 -0.004 -0.000 0.004 0.000
2615 4 10.346 15.914 21.715 -0.011 0.011 0.009 0.000
1203 4 -1.047 -3.059 9.910 -0.006 0.000 -0.001 -0.000
2441 4 -2.872 0.794 20.460 -0.004 0.001 -0.003 0.000
164 4 -1.344 14.410 -2.743 -0.001 0.004 -0.001 -0.000
1781 4 16.077 12.021 11.920 0.011 -0.006 0.005 -0.000
2603 4 -0.786 15.772 21.880 -0.001 0.004 -0.019 -0.000
2207 4 2.809 15.779 18.313 0.011 -0.005 -0.000 0.000
2605 4 0.920 15.662 20.294 -0.002 -0.001 0.007 0.000
813 4 8.512 -3.046 4.884 0.009 -0.007 0.006 0.000
2419 4 14.259 -2.942 22.289 -0.001 -0.002 0.006 0.000
942 4 15.854 10.063 6.494 -0.006 0.002 -0.000 0.000
981 4 16.138 12.220 4.644 0.008 -0.006 -0.012 0.000
102 4 15.992 6.701 -0.924 0.001 -0.003 -0.002 0.000
1801 4 -2.885 15.982 12.154 -0.012 0.003 0.011 -0.000
215 4 10.540 15.823 -0.951 0.010 0.003 0.000 0.000
2205 4 1.004 15.935 16.202 -0.005 -0.008 0.003 -0.000
2219 4 14.027 15.749 17.975 0.004 0.008 0.011 -0.000
803 4 -0.947 -2.986 6.673 0.002 -0.002 0.006 -0.000
819 4 14.165 -3.079 6.192 0.004 -0.011 -0.005 0.000
1381 4 15.842 12.078 8.571 0.001 -0.001 0.007 -0.000
502 4 15.430 6.727 2.709 0.005 -0.005 0.000 -0.000
2462 4 15.946 2.309 22.172 0.004 -0.009 0.015 0.000